s 1.000000000 _0_ AGT  --- 0 cbr 1000 [0 0 0 0] ------- [0:0 3:0 32 0] [0] 0 0
r 1.000000000 _0_ RTR  --- 0 cbr 1000 [0 0 0 0] ------- [0:0 3:0 32 0] [0] 0 0
s 1.000000000 _0_ RTR  --- 0 AODV 48 [0 0 0 0] ------- [0:255 -1:255 30 0] [0x2 1 1 [3 0] [0 4]] (REQUEST)
r 1.001408374 _4_ RTR  --- 0 AODV 48 [0 ffffffff 0 800] ------- [0:255 -1:255 30 0] [0x2 1 1 [3 0] [0 4]] (REQUEST)
r 1.001408667 _1_ RTR  --- 0 AODV 48 [0 ffffffff 0 800] ------- [0:255 -1:255 30 0] [0x2 1 1 [3 0] [0 4]] (REQUEST)
s 1.001550421 _4_ RTR  --- 0 AODV 48 [0 ffffffff 0 800] ------- [4:255 -1:255 29 0] [0x2 2 1 [3 0] [0 4]] (REQUEST)
s 1.002289893 _1_ RTR  --- 0 AODV 48 [0 ffffffff 0 800] ------- [1:255 -1:255 29 0] [0x2 2 1 [3 0] [0 4]] (REQUEST)
r 1.002818795 _0_ RTR  --- 0 AODV 48 [0 ffffffff 4 800] ------- [4:255 -1:255 29 0] [0x2 2 1 [3 0] [0 4]] (REQUEST)
r 1.002818798 _1_ RTR  --- 0 AODV 48 [0 ffffffff 4 800] ------- [4:255 -1:255 29 0] [0x2 2 1 [3 0] [0 4]] (REQUEST)
r 1.003717175 _4_ RTR  --- 0 AODV 48 [0 ffffffff 1 800] ------- [1:255 -1:255 29 0] [0x2 2 1 [3 0] [0 4]] (REQUEST)
r 1.003717465 _2_ RTR  --- 0 AODV 48 [0 ffffffff 1 800] ------- [1:255 -1:255 29 0] [0x2 2 1 [3 0] [0 4]] (REQUEST)
r 1.003717465 _0_ RTR  --- 0 AODV 48 [0 ffffffff 1 800] ------- [1:255 -1:255 29 0] [0x2 2 1 [3 0] [0 4]] (REQUEST)
s 1.006063482 _2_ RTR  --- 0 AODV 48 [0 ffffffff 1 800] ------- [2:255 -1:255 28 0] [0x2 3 1 [3 0] [0 4]] (REQUEST)
r 1.007371858 _5_ RTR  --- 0 AODV 48 [0 ffffffff 2 800] ------- [2:255 -1:255 28 0] [0x2 3 1 [3 0] [0 4]] (REQUEST)
s 1.007371858 _5_ RTR  --- 0 AODV 44 [0 0 0 0] ------- [5:255 0:255 30 2] [0x4 1 [3 4] 10.000000] (REPLY)
r 1.007371951 _6_ RTR  --- 0 AODV 48 [0 ffffffff 2 800] ------- [2:255 -1:255 28 0] [0x2 3 1 [3 0] [0 4]] (REQUEST)
r 1.007372149 _1_ RTR  --- 0 AODV 48 [0 ffffffff 2 800] ------- [2:255 -1:255 28 0] [0x2 3 1 [3 0] [0 4]] (REQUEST)
r 1.007372152 _3_ RTR  --- 0 AODV 48 [0 ffffffff 2 800] ------- [2:255 -1:255 28 0] [0x2 3 1 [3 0] [0 4]] (REQUEST)
s 1.007372152 _3_ RTR  --- 0 AODV 44 [0 0 0 0] ------- [3:255 0:255 30 2] [0x4 1 [3 4] 10.000000] (REPLY)
r 1.012751242 _2_ RTR  --- 0 AODV 44 [13a 2 5 800] ------- [5:255 0:255 30 2] [0x4 1 [3 4] 10.000000] (REPLY)
f 1.012751242 _2_ RTR  --- 0 AODV 44 [13a 2 5 800] ------- [5:255 0:255 29 1] [0x4 2 [3 4] 10.000000] (REPLY)
s 1.015735187 _6_ RTR  --- 0 AODV 48 [0 ffffffff 2 800] ------- [6:255 -1:255 27 0] [0x2 4 1 [3 0] [0 4]] (REQUEST)
r 1.017838602 _2_ RTR  --- 0 AODV 44 [13a 2 3 800] ------- [3:255 0:255 30 2] [0x4 1 [3 4] 10.000000] (REPLY)
r 1.019151540 _3_ RTR  --- 0 AODV 48 [0 ffffffff 6 800] ------- [6:255 -1:255 27 0] [0x2 4 1 [3 0] [0 4]] (REQUEST)
r 1.019151540 _2_ RTR  --- 0 AODV 48 [0 ffffffff 6 800] ------- [6:255 -1:255 27 0] [0x2 4 1 [3 0] [0 4]] (REQUEST)
r 1.019151571 _5_ RTR  --- 0 AODV 48 [0 ffffffff 6 800] ------- [6:255 -1:255 27 0] [0x2 4 1 [3 0] [0 4]] (REQUEST)
r 1.023470126 _1_ RTR  --- 0 AODV 44 [13a 1 2 800] ------- [5:255 0:255 29 1] [0x4 2 [3 4] 10.000000] (REPLY)
f 1.023470126 _1_ RTR  --- 0 AODV 44 [13a 1 2 800] ------- [5:255 0:255 28 0] [0x4 3 [3 4] 10.000000] (REPLY)
r 1.029001792 _0_ RTR  --- 0 AODV 44 [13a 0 1 800] ------- [5:255 0:255 28 0] [0x4 3 [3 4] 10.000000] (REPLY)
s 1.029001792 _0_ RTR  --- 0 cbr 1020 [0 0 0 0] ------- [0:0 3:0 30 1] [0] 0 0
r 1.038747793 _1_ RTR  --- 0 cbr 1020 [13a 1 0 800] ------- [0:0 3:0 30 1] [0] 1 0
f 1.038747793 _1_ RTR  --- 0 cbr 1020 [13a 1 0 800] ------- [0:0 3:0 29 2] [0] 1 0
r 1.048633793 _2_ RTR  --- 0 cbr 1020 [13a 2 1 800] ------- [0:0 3:0 29 2] [0] 2 0
f 1.048633793 _2_ RTR  --- 0 cbr 1020 [13a 2 1 800] ------- [0:0 3:0 28 5] [0] 2 0
r 1.058398920 _5_ RTR  --- 0 cbr 1020 [13a 5 2 800] ------- [0:0 3:0 28 5] [0] 3 0
D 1.058398920 _5_ RTR LOOP 0 cbr 1020 [13a 5 2 800] ------- [0:0 3:0 27 5] [0] 3 0
s 1.080000000 _0_ AGT  --- 1 cbr 1000 [0 0 0 0] ------- [0:0 3:0 32 0] [1] 0 0
r 1.080000000 _0_ RTR  --- 1 cbr 1000 [0 0 0 0] ------- [0:0 3:0 32 0] [1] 0 0
s 1.080000000 _0_ RTR  --- 1 cbr 1020 [0 0 0 0] ------- [0:0 3:0 30 1] [1] 0 0
r 1.089602000 _1_ RTR  --- 1 cbr 1020 [13a 1 0 800] ------- [0:0 3:0 30 1] [1] 1 0
f 1.089602000 _1_ RTR  --- 1 cbr 1020 [13a 1 0 800] ------- [0:0 3:0 29 2] [1] 1 0
r 1.099848000 _2_ RTR  --- 1 cbr 1020 [13a 2 1 800] ------- [0:0 3:0 29 2] [1] 2 0
f 1.099848000 _2_ RTR  --- 1 cbr 1020 [13a 2 1 800] ------- [0:0 3:0 28 5] [1] 2 0
r 1.109633127 _5_ RTR  --- 1 cbr 1020 [13a 5 2 800] ------- [0:0 3:0 28 5] [1] 3 0
D 1.109633127 _5_ RTR LOOP 1 cbr 1020 [13a 5 2 800] ------- [0:0 3:0 27 5] [1] 3 0
s 1.160000000 _0_ AGT  --- 2 cbr 1000 [0 0 0 0] ------- [0:0 3:0 32 0] [2] 0 0
r 1.160000000 _0_ RTR  --- 2 cbr 1000 [0 0 0 0] ------- [0:0 3:0 32 0] [2] 0 0
s 1.160000000 _0_ RTR  --- 2 cbr 1020 [0 0 0 0] ------- [0:0 3:0 30 1] [2] 0 0
r 1.169682000 _1_ RTR  --- 2 cbr 1020 [13a 1 0 800] ------- [0:0 3:0 30 1] [2] 1 0
f 1.169682000 _1_ RTR  --- 2 cbr 1020 [13a 1 0 800] ------- [0:0 3:0 29 2] [2] 1 0
r 1.179528000 _2_ RTR  --- 2 cbr 1020 [13a 2 1 800] ------- [0:0 3:0 29 2] [2] 2 0
f 1.179528000 _2_ RTR  --- 2 cbr 1020 [13a 2 1 800] ------- [0:0 3:0 28 5] [2] 2 0
r 1.189673127 _5_ RTR  --- 2 cbr 1020 [13a 5 2 800] ------- [0:0 3:0 28 5] [2] 3 0
D 1.189673127 _5_ RTR LOOP 2 cbr 1020 [13a 5 2 800] ------- [0:0 3:0 27 5] [2] 3 0
s 1.240000000 _0_ AGT  --- 3 cbr 1000 [0 0 0 0] ------- [0:0 3:0 32 0] [3] 0 0
r 1.240000000 _0_ RTR  --- 3 cbr 1000 [0 0 0 0] ------- [0:0 3:0 32 0] [3] 0 0
s 1.240000000 _0_ RTR  --- 3 cbr 1020 [0 0 0 0] ------- [0:0 3:0 30 1] [3] 0 0
r 1.249722000 _1_ RTR  --- 3 cbr 1020 [13a 1 0 800] ------- [0:0 3:0 30 1] [3] 1 0
f 1.249722000 _1_ RTR  --- 3 cbr 1020 [13a 1 0 800] ------- [0:0 3:0 29 2] [3] 1 0
r 1.259548000 _2_ RTR  --- 3 cbr 1020 [13a 2 1 800] ------- [0:0 3:0 29 2] [3] 2 0
f 1.259548000 _2_ RTR  --- 3 cbr 1020 [13a 2 1 800] ------- [0:0 3:0 28 5] [3] 2 0
r 1.269293127 _5_ RTR  --- 3 cbr 1020 [13a 5 2 800] ------- [0:0 3:0 28 5] [3] 3 0
D 1.269293127 _5_ RTR LOOP 3 cbr 1020 [13a 5 2 800] ------- [0:0 3:0 27 5] [3] 3 0
s 1.320000000 _0_ AGT  --- 4 cbr 1000 [0 0 0 0] ------- [0:0 3:0 32 0] [4] 0 0
r 1.320000000 _0_ RTR  --- 4 cbr 1000 [0 0 0 0] ------- [0:0 3:0 32 0] [4] 0 0
s 1.320000000 _0_ RTR  --- 4 cbr 1020 [0 0 0 0] ------- [0:0 3:0 30 1] [4] 0 0
r 1.329642000 _1_ RTR  --- 4 cbr 1020 [13a 1 0 800] ------- [0:0 3:0 30 1] [4] 1 0
f 1.329642000 _1_ RTR  --- 4 cbr 1020 [13a 1 0 800] ------- [0:0 3:0 29 2] [4] 1 0
r 1.339608000 _2_ RTR  --- 4 cbr 1020 [13a 2 1 800] ------- [0:0 3:0 29 2] [4] 2 0
f 1.339608000 _2_ RTR  --- 4 cbr 1020 [13a 2 1 800] ------- [0:0 3:0 28 5] [4] 2 0
r 1.349293127 _5_ RTR  --- 4 cbr 1020 [13a 5 2 800] ------- [0:0 3:0 28 5] [4] 3 0
D 1.349293127 _5_ RTR LOOP 4 cbr 1020 [13a 5 2 800] ------- [0:0 3:0 27 5] [4] 3 0
s 1.400000000 _0_ AGT  --- 5 cbr 1000 [0 0 0 0] ------- [0:0 3:0 32 0] [5] 0 0
r 1.400000000 _0_ RTR  --- 5 cbr 1000 [0 0 0 0] ------- [0:0 3:0 32 0] [5] 0 0
s 1.400000000 _0_ RTR  --- 5 cbr 1020 [0 0 0 0] ------- [0:0 3:0 30 1] [5] 0 0
r 1.409522000 _1_ RTR  --- 5 cbr 1020 [13a 1 0 800] ------- [0:0 3:0 30 1] [5] 1 0
f 1.409522000 _1_ RTR  --- 5 cbr 1020 [13a 1 0 800] ------- [0:0 3:0 29 2] [5] 1 0
r 1.419488000 _2_ RTR  --- 5 cbr 1020 [13a 2 1 800] ------- [0:0 3:0 29 2] [5] 2 0
f 1.419488000 _2_ RTR  --- 5 cbr 1020 [13a 2 1 800] ------- [0:0 3:0 28 5] [5] 2 0
r 1.429613127 _5_ RTR  --- 5 cbr 1020 [13a 5 2 800] ------- [0:0 3:0 28 5] [5] 3 0
D 1.429613127 _5_ RTR LOOP 5 cbr 1020 [13a 5 2 800] ------- [0:0 3:0 27 5] [5] 3 0
s 1.480000000 _0_ AGT  --- 6 cbr 1000 [0 0 0 0] ------- [0:0 3:0 32 0] [6] 0 0
r 1.480000000 _0_ RTR  --- 6 cbr 1000 [0 0 0 0] ------- [0:0 3:0 32 0] [6] 0 0
s 1.480000000 _0_ RTR  --- 6 cbr 1020 [0 0 0 0] ------- [0:0 3:0 30 1] [6] 0 0
r 1.489502000 _1_ RTR  --- 6 cbr 1020 [13a 1 0 800] ------- [0:0 3:0 30 1] [6] 1 0
f 1.489502000 _1_ RTR  --- 6 cbr 1020 [13a 1 0 800] ------- [0:0 3:0 29 2] [6] 1 0
r 1.499248000 _2_ RTR  --- 6 cbr 1020 [13a 2 1 800] ------- [0:0 3:0 29 2] [6] 2 0
f 1.499248000 _2_ RTR  --- 6 cbr 1020 [13a 2 1 800] ------- [0:0 3:0 28 5] [6] 2 0
r 1.509113127 _5_ RTR  --- 6 cbr 1020 [13a 5 2 800] ------- [0:0 3:0 28 5] [6] 3 0
D 1.509113127 _5_ RTR LOOP 6 cbr 1020 [13a 5 2 800] ------- [0:0 3:0 27 5] [6] 3 0
s 1.560000000 _0_ AGT  --- 7 cbr 1000 [0 0 0 0] ------- [0:0 3:0 32 0] [7] 0 0
r 1.560000000 _0_ RTR  --- 7 cbr 1000 [0 0 0 0] ------- [0:0 3:0 32 0] [7] 0 0
s 1.560000000 _0_ RTR  --- 7 cbr 1020 [0 0 0 0] ------- [0:0 3:0 30 1] [7] 0 0
r 1.570002000 _1_ RTR  --- 7 cbr 1020 [13a 1 0 800] ------- [0:0 3:0 30 1] [7] 1 0
f 1.570002000 _1_ RTR  --- 7 cbr 1020 [13a 1 0 800] ------- [0:0 3:0 29 2] [7] 1 0
r 1.579788000 _2_ RTR  --- 7 cbr 1020 [13a 2 1 800] ------- [0:0 3:0 29 2] [7] 2 0
f 1.579788000 _2_ RTR  --- 7 cbr 1020 [13a 2 1 800] ------- [0:0 3:0 28 5] [7] 2 0
r 1.590033127 _5_ RTR  --- 7 cbr 1020 [13a 5 2 800] ------- [0:0 3:0 28 5] [7] 3 0
D 1.590033127 _5_ RTR LOOP 7 cbr 1020 [13a 5 2 800] ------- [0:0 3:0 27 5] [7] 3 0
s 1.640000000 _0_ AGT  --- 8 cbr 1000 [0 0 0 0] ------- [0:0 3:0 32 0] [8] 0 0
r 1.640000000 _0_ RTR  --- 8 cbr 1000 [0 0 0 0] ------- [0:0 3:0 32 0] [8] 0 0
s 1.640000000 _0_ RTR  --- 8 cbr 1020 [0 0 0 0] ------- [0:0 3:0 30 1] [8] 0 0
r 1.649842000 _1_ RTR  --- 8 cbr 1020 [13a 1 0 800] ------- [0:0 3:0 30 1] [8] 1 0
f 1.649842000 _1_ RTR  --- 8 cbr 1020 [13a 1 0 800] ------- [0:0 3:0 29 2] [8] 1 0
r 1.660048000 _2_ RTR  --- 8 cbr 1020 [13a 2 1 800] ------- [0:0 3:0 29 2] [8] 2 0
f 1.660048000 _2_ RTR  --- 8 cbr 1020 [13a 2 1 800] ------- [0:0 3:0 28 5] [8] 2 0
r 1.670013127 _5_ RTR  --- 8 cbr 1020 [13a 5 2 800] ------- [0:0 3:0 28 5] [8] 3 0
D 1.670013127 _5_ RTR LOOP 8 cbr 1020 [13a 5 2 800] ------- [0:0 3:0 27 5] [8] 3 0
s 1.720000000 _0_ AGT  --- 9 cbr 1000 [0 0 0 0] ------- [0:0 3:0 32 0] [9] 0 0
r 1.720000000 _0_ RTR  --- 9 cbr 1000 [0 0 0 0] ------- [0:0 3:0 32 0] [9] 0 0
s 1.720000000 _0_ RTR  --- 9 cbr 1020 [0 0 0 0] ------- [0:0 3:0 30 1] [9] 0 0
r 1.729442000 _1_ RTR  --- 9 cbr 1020 [13a 1 0 800] ------- [0:0 3:0 30 1] [9] 1 0
f 1.729442000 _1_ RTR  --- 9 cbr 1020 [13a 1 0 800] ------- [0:0 3:0 29 2] [9] 1 0
r 1.739688000 _2_ RTR  --- 9 cbr 1020 [13a 2 1 800] ------- [0:0 3:0 29 2] [9] 2 0
f 1.739688000 _2_ RTR  --- 9 cbr 1020 [13a 2 1 800] ------- [0:0 3:0 28 5] [9] 2 0
r 1.749533127 _5_ RTR  --- 9 cbr 1020 [13a 5 2 800] ------- [0:0 3:0 28 5] [9] 3 0
D 1.749533127 _5_ RTR LOOP 9 cbr 1020 [13a 5 2 800] ------- [0:0 3:0 27 5] [9] 3 0
s 1.800000000 _0_ AGT  --- 10 cbr 1000 [0 0 0 0] ------- [0:0 3:0 32 0] [10] 0 0
r 1.800000000 _0_ RTR  --- 10 cbr 1000 [0 0 0 0] ------- [0:0 3:0 32 0] [10] 0 0
s 1.800000000 _0_ RTR  --- 10 cbr 1020 [0 0 0 0] ------- [0:0 3:0 30 1] [10] 0 0
r 1.809802000 _1_ RTR  --- 10 cbr 1020 [13a 1 0 800] ------- [0:0 3:0 30 1] [10] 1 0
f 1.809802000 _1_ RTR  --- 10 cbr 1020 [13a 1 0 800] ------- [0:0 3:0 29 2] [10] 1 0
r 1.819588000 _2_ RTR  --- 10 cbr 1020 [13a 2 1 800] ------- [0:0 3:0 29 2] [10] 2 0
f 1.819588000 _2_ RTR  --- 10 cbr 1020 [13a 2 1 800] ------- [0:0 3:0 28 5] [10] 2 0
r 1.829473127 _5_ RTR  --- 10 cbr 1020 [13a 5 2 800] ------- [0:0 3:0 28 5] [10] 3 0
D 1.829473127 _5_ RTR LOOP 10 cbr 1020 [13a 5 2 800] ------- [0:0 3:0 27 5] [10] 3 0
s 1.880000000 _0_ AGT  --- 11 cbr 1000 [0 0 0 0] ------- [0:0 3:0 32 0] [11] 0 0
r 1.880000000 _0_ RTR  --- 11 cbr 1000 [0 0 0 0] ------- [0:0 3:0 32 0] [11] 0 0
s 1.880000000 _0_ RTR  --- 11 cbr 1020 [0 0 0 0] ------- [0:0 3:0 30 1] [11] 0 0
r 1.889762000 _1_ RTR  --- 11 cbr 1020 [13a 1 0 800] ------- [0:0 3:0 30 1] [11] 1 0
f 1.889762000 _1_ RTR  --- 11 cbr 1020 [13a 1 0 800] ------- [0:0 3:0 29 2] [11] 1 0
r 1.899748000 _2_ RTR  --- 11 cbr 1020 [13a 2 1 800] ------- [0:0 3:0 29 2] [11] 2 0
f 1.899748000 _2_ RTR  --- 11 cbr 1020 [13a 2 1 800] ------- [0:0 3:0 28 5] [11] 2 0
r 1.909913127 _5_ RTR  --- 11 cbr 1020 [13a 5 2 800] ------- [0:0 3:0 28 5] [11] 3 0
D 1.909913127 _5_ RTR LOOP 11 cbr 1020 [13a 5 2 800] ------- [0:0 3:0 27 5] [11] 3 0
s 1.960000000 _0_ AGT  --- 12 cbr 1000 [0 0 0 0] ------- [0:0 3:0 32 0] [12] 0 0
r 1.960000000 _0_ RTR  --- 12 cbr 1000 [0 0 0 0] ------- [0:0 3:0 32 0] [12] 0 0
s 1.960000000 _0_ RTR  --- 12 cbr 1020 [0 0 0 0] ------- [0:0 3:0 30 1] [12] 0 0
r 1.969422000 _1_ RTR  --- 12 cbr 1020 [13a 1 0 800] ------- [0:0 3:0 30 1] [12] 1 0
f 1.969422000 _1_ RTR  --- 12 cbr 1020 [13a 1 0 800] ------- [0:0 3:0 29 2] [12] 1 0
r 1.979348000 _2_ RTR  --- 12 cbr 1020 [13a 2 1 800] ------- [0:0 3:0 29 2] [12] 2 0
f 1.979348000 _2_ RTR  --- 12 cbr 1020 [13a 2 1 800] ------- [0:0 3:0 28 5] [12] 2 0
r 1.989013127 _5_ RTR  --- 12 cbr 1020 [13a 5 2 800] ------- [0:0 3:0 28 5] [12] 3 0
D 1.989013127 _5_ RTR LOOP 12 cbr 1020 [13a 5 2 800] ------- [0:0 3:0 27 5] [12] 3 0
s 2.040000000 _0_ AGT  --- 13 cbr 1000 [0 0 0 0] ------- [0:0 3:0 32 0] [13] 0 0
r 2.040000000 _0_ RTR  --- 13 cbr 1000 [0 0 0 0] ------- [0:0 3:0 32 0] [13] 0 0
s 2.040000000 _0_ RTR  --- 13 cbr 1020 [0 0 0 0] ------- [0:0 3:0 30 1] [13] 0 0
r 2.050002000 _1_ RTR  --- 13 cbr 1020 [13a 1 0 800] ------- [0:0 3:0 30 1] [13] 1 0
f 2.050002000 _1_ RTR  --- 13 cbr 1020 [13a 1 0 800] ------- [0:0 3:0 29 2] [13] 1 0
r 2.060088000 _2_ RTR  --- 13 cbr 1020 [13a 2 1 800] ------- [0:0 3:0 29 2] [13] 2 0
f 2.060088000 _2_ RTR  --- 13 cbr 1020 [13a 2 1 800] ------- [0:0 3:0 28 5] [13] 2 0
r 2.069773127 _5_ RTR  --- 13 cbr 1020 [13a 5 2 800] ------- [0:0 3:0 28 5] [13] 3 0
D 2.069773127 _5_ RTR LOOP 13 cbr 1020 [13a 5 2 800] ------- [0:0 3:0 27 5] [13] 3 0
s 2.120000000 _0_ AGT  --- 14 cbr 1000 [0 0 0 0] ------- [0:0 3:0 32 0] [14] 0 0
r 2.120000000 _0_ RTR  --- 14 cbr 1000 [0 0 0 0] ------- [0:0 3:0 32 0] [14] 0 0
s 2.120000000 _0_ RTR  --- 14 cbr 1020 [0 0 0 0] ------- [0:0 3:0 30 1] [14] 0 0
r 2.129422000 _1_ RTR  --- 14 cbr 1020 [13a 1 0 800] ------- [0:0 3:0 30 1] [14] 1 0
f 2.129422000 _1_ RTR  --- 14 cbr 1020 [13a 1 0 800] ------- [0:0 3:0 29 2] [14] 1 0
r 2.139108000 _2_ RTR  --- 14 cbr 1020 [13a 2 1 800] ------- [0:0 3:0 29 2] [14] 2 0
f 2.139108000 _2_ RTR  --- 14 cbr 1020 [13a 2 1 800] ------- [0:0 3:0 28 5] [14] 2 0
r 2.149213127 _5_ RTR  --- 14 cbr 1020 [13a 5 2 800] ------- [0:0 3:0 28 5] [14] 3 0
D 2.149213127 _5_ RTR LOOP 14 cbr 1020 [13a 5 2 800] ------- [0:0 3:0 27 5] [14] 3 0
s 2.200000000 _0_ AGT  --- 15 cbr 1000 [0 0 0 0] ------- [0:0 3:0 32 0] [15] 0 0
r 2.200000000 _0_ RTR  --- 15 cbr 1000 [0 0 0 0] ------- [0:0 3:0 32 0] [15] 0 0
s 2.200000000 _0_ RTR  --- 15 cbr 1020 [0 0 0 0] ------- [0:0 3:0 30 1] [15] 0 0
r 2.209722000 _1_ RTR  --- 15 cbr 1020 [13a 1 0 800] ------- [0:0 3:0 30 1] [15] 1 0
f 2.209722000 _1_ RTR  --- 15 cbr 1020 [13a 1 0 800] ------- [0:0 3:0 29 2] [15] 1 0
r 2.219568000 _2_ RTR  --- 15 cbr 1020 [13a 2 1 800] ------- [0:0 3:0 29 2] [15] 2 0
f 2.219568000 _2_ RTR  --- 15 cbr 1020 [13a 2 1 800] ------- [0:0 3:0 28 5] [15] 2 0
r 2.229413127 _5_ RTR  --- 15 cbr 1020 [13a 5 2 800] ------- [0:0 3:0 28 5] [15] 3 0
D 2.229413127 _5_ RTR LOOP 15 cbr 1020 [13a 5 2 800] ------- [0:0 3:0 27 5] [15] 3 0
s 2.280000000 _0_ AGT  --- 16 cbr 1000 [0 0 0 0] ------- [0:0 3:0 32 0] [16] 0 0
r 2.280000000 _0_ RTR  --- 16 cbr 1000 [0 0 0 0] ------- [0:0 3:0 32 0] [16] 0 0
s 2.280000000 _0_ RTR  --- 16 cbr 1020 [0 0 0 0] ------- [0:0 3:0 30 1] [16] 0 0
r 2.289402000 _1_ RTR  --- 16 cbr 1020 [13a 1 0 800] ------- [0:0 3:0 30 1] [16] 1 0
f 2.289402000 _1_ RTR  --- 16 cbr 1020 [13a 1 0 800] ------- [0:0 3:0 29 2] [16] 1 0
r 2.299168000 _2_ RTR  --- 16 cbr 1020 [13a 2 1 800] ------- [0:0 3:0 29 2] [16] 2 0
f 2.299168000 _2_ RTR  --- 16 cbr 1020 [13a 2 1 800] ------- [0:0 3:0 28 5] [16] 2 0
r 2.309373127 _5_ RTR  --- 16 cbr 1020 [13a 5 2 800] ------- [0:0 3:0 28 5] [16] 3 0
D 2.309373127 _5_ RTR LOOP 16 cbr 1020 [13a 5 2 800] ------- [0:0 3:0 27 5] [16] 3 0
s 2.360000000 _0_ AGT  --- 17 cbr 1000 [0 0 0 0] ------- [0:0 3:0 32 0] [17] 0 0
r 2.360000000 _0_ RTR  --- 17 cbr 1000 [0 0 0 0] ------- [0:0 3:0 32 0] [17] 0 0
s 2.360000000 _0_ RTR  --- 17 cbr 1020 [0 0 0 0] ------- [0:0 3:0 30 1] [17] 0 0
r 2.369982000 _1_ RTR  --- 17 cbr 1020 [13a 1 0 800] ------- [0:0 3:0 30 1] [17] 1 0
f 2.369982000 _1_ RTR  --- 17 cbr 1020 [13a 1 0 800] ------- [0:0 3:0 29 2] [17] 1 0
r 2.379868000 _2_ RTR  --- 17 cbr 1020 [13a 2 1 800] ------- [0:0 3:0 29 2] [17] 2 0
f 2.379868000 _2_ RTR  --- 17 cbr 1020 [13a 2 1 800] ------- [0:0 3:0 28 5] [17] 2 0
r 2.389673127 _5_ RTR  --- 17 cbr 1020 [13a 5 2 800] ------- [0:0 3:0 28 5] [17] 3 0
D 2.389673127 _5_ RTR LOOP 17 cbr 1020 [13a 5 2 800] ------- [0:0 3:0 27 5] [17] 3 0
s 2.440000000 _0_ AGT  --- 18 cbr 1000 [0 0 0 0] ------- [0:0 3:0 32 0] [18] 0 0
r 2.440000000 _0_ RTR  --- 18 cbr 1000 [0 0 0 0] ------- [0:0 3:0 32 0] [18] 0 0
s 2.440000000 _0_ RTR  --- 18 cbr 1020 [0 0 0 0] ------- [0:0 3:0 30 1] [18] 0 0
r 2.449502000 _1_ RTR  --- 18 cbr 1020 [13a 1 0 800] ------- [0:0 3:0 30 1] [18] 1 0
f 2.449502000 _1_ RTR  --- 18 cbr 1020 [13a 1 0 800] ------- [0:0 3:0 29 2] [18] 1 0
r 2.459348000 _2_ RTR  --- 18 cbr 1020 [13a 2 1 800] ------- [0:0 3:0 29 2] [18] 2 0
f 2.459348000 _2_ RTR  --- 18 cbr 1020 [13a 2 1 800] ------- [0:0 3:0 28 5] [18] 2 0
r 2.469393127 _5_ RTR  --- 18 cbr 1020 [13a 5 2 800] ------- [0:0 3:0 28 5] [18] 3 0
D 2.469393127 _5_ RTR LOOP 18 cbr 1020 [13a 5 2 800] ------- [0:0 3:0 27 5] [18] 3 0
s 2.520000000 _0_ AGT  --- 19 cbr 1000 [0 0 0 0] ------- [0:0 3:0 32 0] [19] 0 0
r 2.520000000 _0_ RTR  --- 19 cbr 1000 [0 0 0 0] ------- [0:0 3:0 32 0] [19] 0 0
s 2.520000000 _0_ RTR  --- 19 cbr 1020 [0 0 0 0] ------- [0:0 3:0 30 1] [19] 0 0
r 2.529402000 _1_ RTR  --- 19 cbr 1020 [13a 1 0 800] ------- [0:0 3:0 30 1] [19] 1 0
f 2.529402000 _1_ RTR  --- 19 cbr 1020 [13a 1 0 800] ------- [0:0 3:0 29 2] [19] 1 0
r 2.539188000 _2_ RTR  --- 19 cbr 1020 [13a 2 1 800] ------- [0:0 3:0 29 2] [19] 2 0
f 2.539188000 _2_ RTR  --- 19 cbr 1020 [13a 2 1 800] ------- [0:0 3:0 28 5] [19] 2 0
r 2.549013127 _5_ RTR  --- 19 cbr 1020 [13a 5 2 800] ------- [0:0 3:0 28 5] [19] 3 0
D 2.549013127 _5_ RTR LOOP 19 cbr 1020 [13a 5 2 800] ------- [0:0 3:0 27 5] [19] 3 0
s 2.600000000 _0_ AGT  --- 20 cbr 1000 [0 0 0 0] ------- [0:0 3:0 32 0] [20] 0 0
r 2.600000000 _0_ RTR  --- 20 cbr 1000 [0 0 0 0] ------- [0:0 3:0 32 0] [20] 0 0
s 2.600000000 _0_ RTR  --- 20 cbr 1020 [0 0 0 0] ------- [0:0 3:0 30 1] [20] 0 0
r 2.609542000 _1_ RTR  --- 20 cbr 1020 [13a 1 0 800] ------- [0:0 3:0 30 1] [20] 1 0
f 2.609542000 _1_ RTR  --- 20 cbr 1020 [13a 1 0 800] ------- [0:0 3:0 29 2] [20] 1 0
r 2.619748000 _2_ RTR  --- 20 cbr 1020 [13a 2 1 800] ------- [0:0 3:0 29 2] [20] 2 0
f 2.619748000 _2_ RTR  --- 20 cbr 1020 [13a 2 1 800] ------- [0:0 3:0 28 5] [20] 2 0
r 2.629453127 _5_ RTR  --- 20 cbr 1020 [13a 5 2 800] ------- [0:0 3:0 28 5] [20] 3 0
D 2.629453127 _5_ RTR LOOP 20 cbr 1020 [13a 5 2 800] ------- [0:0 3:0 27 5] [20] 3 0
s 2.680000000 _0_ AGT  --- 21 cbr 1000 [0 0 0 0] ------- [0:0 3:0 32 0] [21] 0 0
r 2.680000000 _0_ RTR  --- 21 cbr 1000 [0 0 0 0] ------- [0:0 3:0 32 0] [21] 0 0
s 2.680000000 _0_ RTR  --- 21 cbr 1020 [0 0 0 0] ------- [0:0 3:0 30 1] [21] 0 0
r 2.689402000 _1_ RTR  --- 21 cbr 1020 [13a 1 0 800] ------- [0:0 3:0 30 1] [21] 1 0
f 2.689402000 _1_ RTR  --- 21 cbr 1020 [13a 1 0 800] ------- [0:0 3:0 29 2] [21] 1 0
r 2.699148000 _2_ RTR  --- 21 cbr 1020 [13a 2 1 800] ------- [0:0 3:0 29 2] [21] 2 0
f 2.699148000 _2_ RTR  --- 21 cbr 1020 [13a 2 1 800] ------- [0:0 3:0 28 5] [21] 2 0
r 2.709113127 _5_ RTR  --- 21 cbr 1020 [13a 5 2 800] ------- [0:0 3:0 28 5] [21] 3 0
D 2.709113127 _5_ RTR LOOP 21 cbr 1020 [13a 5 2 800] ------- [0:0 3:0 27 5] [21] 3 0
s 2.760000000 _0_ AGT  --- 22 cbr 1000 [0 0 0 0] ------- [0:0 3:0 32 0] [22] 0 0
r 2.760000000 _0_ RTR  --- 22 cbr 1000 [0 0 0 0] ------- [0:0 3:0 32 0] [22] 0 0
s 2.760000000 _0_ RTR  --- 22 cbr 1020 [0 0 0 0] ------- [0:0 3:0 30 1] [22] 0 0
r 2.769882000 _1_ RTR  --- 22 cbr 1020 [13a 1 0 800] ------- [0:0 3:0 30 1] [22] 1 0
f 2.769882000 _1_ RTR  --- 22 cbr 1020 [13a 1 0 800] ------- [0:0 3:0 29 2] [22] 1 0
r 2.779588000 _2_ RTR  --- 22 cbr 1020 [13a 2 1 800] ------- [0:0 3:0 29 2] [22] 2 0
f 2.779588000 _2_ RTR  --- 22 cbr 1020 [13a 2 1 800] ------- [0:0 3:0 28 5] [22] 2 0
r 2.789753127 _5_ RTR  --- 22 cbr 1020 [13a 5 2 800] ------- [0:0 3:0 28 5] [22] 3 0
D 2.789753127 _5_ RTR LOOP 22 cbr 1020 [13a 5 2 800] ------- [0:0 3:0 27 5] [22] 3 0
s 2.840000000 _0_ AGT  --- 23 cbr 1000 [0 0 0 0] ------- [0:0 3:0 32 0] [23] 0 0
r 2.840000000 _0_ RTR  --- 23 cbr 1000 [0 0 0 0] ------- [0:0 3:0 32 0] [23] 0 0
s 2.840000000 _0_ RTR  --- 23 cbr 1020 [0 0 0 0] ------- [0:0 3:0 30 1] [23] 0 0
r 2.849402000 _1_ RTR  --- 23 cbr 1020 [13a 1 0 800] ------- [0:0 3:0 30 1] [23] 1 0
f 2.849402000 _1_ RTR  --- 23 cbr 1020 [13a 1 0 800] ------- [0:0 3:0 29 2] [23] 1 0
r 2.859628000 _2_ RTR  --- 23 cbr 1020 [13a 2 1 800] ------- [0:0 3:0 29 2] [23] 2 0
f 2.859628000 _2_ RTR  --- 23 cbr 1020 [13a 2 1 800] ------- [0:0 3:0 28 5] [23] 2 0
r 2.869673127 _5_ RTR  --- 23 cbr 1020 [13a 5 2 800] ------- [0:0 3:0 28 5] [23] 3 0
D 2.869673127 _5_ RTR LOOP 23 cbr 1020 [13a 5 2 800] ------- [0:0 3:0 27 5] [23] 3 0
s 2.920000000 _0_ AGT  --- 24 cbr 1000 [0 0 0 0] ------- [0:0 3:0 32 0] [24] 0 0
r 2.920000000 _0_ RTR  --- 24 cbr 1000 [0 0 0 0] ------- [0:0 3:0 32 0] [24] 0 0
s 2.920000000 _0_ RTR  --- 24 cbr 1020 [0 0 0 0] ------- [0:0 3:0 30 1] [24] 0 0
r 2.929802000 _1_ RTR  --- 24 cbr 1020 [13a 1 0 800] ------- [0:0 3:0 30 1] [24] 1 0
f 2.929802000 _1_ RTR  --- 24 cbr 1020 [13a 1 0 800] ------- [0:0 3:0 29 2] [24] 1 0
r 2.939588000 _2_ RTR  --- 24 cbr 1020 [13a 2 1 800] ------- [0:0 3:0 29 2] [24] 2 0
f 2.939588000 _2_ RTR  --- 24 cbr 1020 [13a 2 1 800] ------- [0:0 3:0 28 5] [24] 2 0
r 2.949273127 _5_ RTR  --- 24 cbr 1020 [13a 5 2 800] ------- [0:0 3:0 28 5] [24] 3 0
D 2.949273127 _5_ RTR LOOP 24 cbr 1020 [13a 5 2 800] ------- [0:0 3:0 27 5] [24] 3 0
s 3.000000000 _0_ AGT  --- 25 cbr 1000 [0 0 0 0] ------- [0:0 3:0 32 0] [25] 0 0
r 3.000000000 _0_ RTR  --- 25 cbr 1000 [0 0 0 0] ------- [0:0 3:0 32 0] [25] 0 0
s 3.000000000 _0_ RTR  --- 25 cbr 1020 [0 0 0 0] ------- [0:0 3:0 30 1] [25] 0 0
r 3.009962000 _1_ RTR  --- 25 cbr 1020 [13a 1 0 800] ------- [0:0 3:0 30 1] [25] 1 0
f 3.009962000 _1_ RTR  --- 25 cbr 1020 [13a 1 0 800] ------- [0:0 3:0 29 2] [25] 1 0
r 3.020088000 _2_ RTR  --- 25 cbr 1020 [13a 2 1 800] ------- [0:0 3:0 29 2] [25] 2 0
f 3.020088000 _2_ RTR  --- 25 cbr 1020 [13a 2 1 800] ------- [0:0 3:0 28 5] [25] 2 0
r 3.029913127 _5_ RTR  --- 25 cbr 1020 [13a 5 2 800] ------- [0:0 3:0 28 5] [25] 3 0
D 3.029913127 _5_ RTR LOOP 25 cbr 1020 [13a 5 2 800] ------- [0:0 3:0 27 5] [25] 3 0
s 3.080000000 _0_ AGT  --- 26 cbr 1000 [0 0 0 0] ------- [0:0 3:0 32 0] [26] 0 0
r 3.080000000 _0_ RTR  --- 26 cbr 1000 [0 0 0 0] ------- [0:0 3:0 32 0] [26] 0 0
s 3.080000000 _0_ RTR  --- 26 cbr 1020 [0 0 0 0] ------- [0:0 3:0 30 1] [26] 0 0
r 3.089622000 _1_ RTR  --- 26 cbr 1020 [13a 1 0 800] ------- [0:0 3:0 30 1] [26] 1 0
f 3.089622000 _1_ RTR  --- 26 cbr 1020 [13a 1 0 800] ------- [0:0 3:0 29 2] [26] 1 0
r 3.099808000 _2_ RTR  --- 26 cbr 1020 [13a 2 1 800] ------- [0:0 3:0 29 2] [26] 2 0
f 3.099808000 _2_ RTR  --- 26 cbr 1020 [13a 2 1 800] ------- [0:0 3:0 28 5] [26] 2 0
r 3.109573127 _5_ RTR  --- 26 cbr 1020 [13a 5 2 800] ------- [0:0 3:0 28 5] [26] 3 0
D 3.109573127 _5_ RTR LOOP 26 cbr 1020 [13a 5 2 800] ------- [0:0 3:0 27 5] [26] 3 0
s 3.160000000 _0_ AGT  --- 27 cbr 1000 [0 0 0 0] ------- [0:0 3:0 32 0] [27] 0 0
r 3.160000000 _0_ RTR  --- 27 cbr 1000 [0 0 0 0] ------- [0:0 3:0 32 0] [27] 0 0
s 3.160000000 _0_ RTR  --- 27 cbr 1020 [0 0 0 0] ------- [0:0 3:0 30 1] [27] 0 0
r 3.169922000 _1_ RTR  --- 27 cbr 1020 [13a 1 0 800] ------- [0:0 3:0 30 1] [27] 1 0
f 3.169922000 _1_ RTR  --- 27 cbr 1020 [13a 1 0 800] ------- [0:0 3:0 29 2] [27] 1 0
r 3.179908000 _2_ RTR  --- 27 cbr 1020 [13a 2 1 800] ------- [0:0 3:0 29 2] [27] 2 0
f 3.179908000 _2_ RTR  --- 27 cbr 1020 [13a 2 1 800] ------- [0:0 3:0 28 5] [27] 2 0
r 3.189613127 _5_ RTR  --- 27 cbr 1020 [13a 5 2 800] ------- [0:0 3:0 28 5] [27] 3 0
D 3.189613127 _5_ RTR LOOP 27 cbr 1020 [13a 5 2 800] ------- [0:0 3:0 27 5] [27] 3 0
s 3.240000000 _0_ AGT  --- 28 cbr 1000 [0 0 0 0] ------- [0:0 3:0 32 0] [28] 0 0
r 3.240000000 _0_ RTR  --- 28 cbr 1000 [0 0 0 0] ------- [0:0 3:0 32 0] [28] 0 0
s 3.240000000 _0_ RTR  --- 28 cbr 1020 [0 0 0 0] ------- [0:0 3:0 30 1] [28] 0 0
r 3.249762000 _1_ RTR  --- 28 cbr 1020 [13a 1 0 800] ------- [0:0 3:0 30 1] [28] 1 0
f 3.249762000 _1_ RTR  --- 28 cbr 1020 [13a 1 0 800] ------- [0:0 3:0 29 2] [28] 1 0
r 3.259588000 _2_ RTR  --- 28 cbr 1020 [13a 2 1 800] ------- [0:0 3:0 29 2] [28] 2 0
f 3.259588000 _2_ RTR  --- 28 cbr 1020 [13a 2 1 800] ------- [0:0 3:0 28 5] [28] 2 0
r 3.269593127 _5_ RTR  --- 28 cbr 1020 [13a 5 2 800] ------- [0:0 3:0 28 5] [28] 3 0
D 3.269593127 _5_ RTR LOOP 28 cbr 1020 [13a 5 2 800] ------- [0:0 3:0 27 5] [28] 3 0
s 3.320000000 _0_ AGT  --- 29 cbr 1000 [0 0 0 0] ------- [0:0 3:0 32 0] [29] 0 0
r 3.320000000 _0_ RTR  --- 29 cbr 1000 [0 0 0 0] ------- [0:0 3:0 32 0] [29] 0 0
s 3.320000000 _0_ RTR  --- 29 cbr 1020 [0 0 0 0] ------- [0:0 3:0 30 1] [29] 0 0
r 3.329882000 _1_ RTR  --- 29 cbr 1020 [13a 1 0 800] ------- [0:0 3:0 30 1] [29] 1 0
f 3.329882000 _1_ RTR  --- 29 cbr 1020 [13a 1 0 800] ------- [0:0 3:0 29 2] [29] 1 0
r 3.340008000 _2_ RTR  --- 29 cbr 1020 [13a 2 1 800] ------- [0:0 3:0 29 2] [29] 2 0
f 3.340008000 _2_ RTR  --- 29 cbr 1020 [13a 2 1 800] ------- [0:0 3:0 28 5] [29] 2 0
r 3.349673127 _5_ RTR  --- 29 cbr 1020 [13a 5 2 800] ------- [0:0 3:0 28 5] [29] 3 0
D 3.349673127 _5_ RTR LOOP 29 cbr 1020 [13a 5 2 800] ------- [0:0 3:0 27 5] [29] 3 0
s 3.400000000 _0_ AGT  --- 30 cbr 1000 [0 0 0 0] ------- [0:0 3:0 32 0] [30] 0 0
r 3.400000000 _0_ RTR  --- 30 cbr 1000 [0 0 0 0] ------- [0:0 3:0 32 0] [30] 0 0
s 3.400000000 _0_ RTR  --- 30 cbr 1020 [0 0 0 0] ------- [0:0 3:0 30 1] [30] 0 0
r 3.409502000 _1_ RTR  --- 30 cbr 1020 [13a 1 0 800] ------- [0:0 3:0 30 1] [30] 1 0
f 3.409502000 _1_ RTR  --- 30 cbr 1020 [13a 1 0 800] ------- [0:0 3:0 29 2] [30] 1 0
r 3.419568000 _2_ RTR  --- 30 cbr 1020 [13a 2 1 800] ------- [0:0 3:0 29 2] [30] 2 0
f 3.419568000 _2_ RTR  --- 30 cbr 1020 [13a 2 1 800] ------- [0:0 3:0 28 5] [30] 2 0
r 3.429253127 _5_ RTR  --- 30 cbr 1020 [13a 5 2 800] ------- [0:0 3:0 28 5] [30] 3 0
D 3.429253127 _5_ RTR LOOP 30 cbr 1020 [13a 5 2 800] ------- [0:0 3:0 27 5] [30] 3 0
s 3.480000000 _0_ AGT  --- 31 cbr 1000 [0 0 0 0] ------- [0:0 3:0 32 0] [31] 0 0
r 3.480000000 _0_ RTR  --- 31 cbr 1000 [0 0 0 0] ------- [0:0 3:0 32 0] [31] 0 0
s 3.480000000 _0_ RTR  --- 31 cbr 1020 [0 0 0 0] ------- [0:0 3:0 30 1] [31] 0 0
r 3.489882000 _1_ RTR  --- 31 cbr 1020 [13a 1 0 800] ------- [0:0 3:0 30 1] [31] 1 0
f 3.489882000 _1_ RTR  --- 31 cbr 1020 [13a 1 0 800] ------- [0:0 3:0 29 2] [31] 1 0
r 3.500148000 _2_ RTR  --- 31 cbr 1020 [13a 2 1 800] ------- [0:0 3:0 29 2] [31] 2 0
f 3.500148000 _2_ RTR  --- 31 cbr 1020 [13a 2 1 800] ------- [0:0 3:0 28 5] [31] 2 0
r 3.509973127 _5_ RTR  --- 31 cbr 1020 [13a 5 2 800] ------- [0:0 3:0 28 5] [31] 3 0
D 3.509973127 _5_ RTR LOOP 31 cbr 1020 [13a 5 2 800] ------- [0:0 3:0 27 5] [31] 3 0
s 3.560000000 _0_ AGT  --- 32 cbr 1000 [0 0 0 0] ------- [0:0 3:0 32 0] [32] 0 0
r 3.560000000 _0_ RTR  --- 32 cbr 1000 [0 0 0 0] ------- [0:0 3:0 32 0] [32] 0 0
s 3.560000000 _0_ RTR  --- 32 cbr 1020 [0 0 0 0] ------- [0:0 3:0 30 1] [32] 0 0
r 3.569622000 _1_ RTR  --- 32 cbr 1020 [13a 1 0 800] ------- [0:0 3:0 30 1] [32] 1 0
f 3.569622000 _1_ RTR  --- 32 cbr 1020 [13a 1 0 800] ------- [0:0 3:0 29 2] [32] 1 0
r 3.579708000 _2_ RTR  --- 32 cbr 1020 [13a 2 1 800] ------- [0:0 3:0 29 2] [32] 2 0
f 3.579708000 _2_ RTR  --- 32 cbr 1020 [13a 2 1 800] ------- [0:0 3:0 28 5] [32] 2 0
r 3.589593127 _5_ RTR  --- 32 cbr 1020 [13a 5 2 800] ------- [0:0 3:0 28 5] [32] 3 0
D 3.589593127 _5_ RTR LOOP 32 cbr 1020 [13a 5 2 800] ------- [0:0 3:0 27 5] [32] 3 0
s 3.640000000 _0_ AGT  --- 33 cbr 1000 [0 0 0 0] ------- [0:0 3:0 32 0] [33] 0 0
r 3.640000000 _0_ RTR  --- 33 cbr 1000 [0 0 0 0] ------- [0:0 3:0 32 0] [33] 0 0
s 3.640000000 _0_ RTR  --- 33 cbr 1020 [0 0 0 0] ------- [0:0 3:0 30 1] [33] 0 0
r 3.649882000 _1_ RTR  --- 33 cbr 1020 [13a 1 0 800] ------- [0:0 3:0 30 1] [33] 1 0
f 3.649882000 _1_ RTR  --- 33 cbr 1020 [13a 1 0 800] ------- [0:0 3:0 29 2] [33] 1 0
r 3.659988000 _2_ RTR  --- 33 cbr 1020 [13a 2 1 800] ------- [0:0 3:0 29 2] [33] 2 0
f 3.659988000 _2_ RTR  --- 33 cbr 1020 [13a 2 1 800] ------- [0:0 3:0 28 5] [33] 2 0
r 3.670213127 _5_ RTR  --- 33 cbr 1020 [13a 5 2 800] ------- [0:0 3:0 28 5] [33] 3 0
D 3.670213127 _5_ RTR LOOP 33 cbr 1020 [13a 5 2 800] ------- [0:0 3:0 27 5] [33] 3 0
s 3.720000000 _0_ AGT  --- 34 cbr 1000 [0 0 0 0] ------- [0:0 3:0 32 0] [34] 0 0
r 3.720000000 _0_ RTR  --- 34 cbr 1000 [0 0 0 0] ------- [0:0 3:0 32 0] [34] 0 0
s 3.720000000 _0_ RTR  --- 34 cbr 1020 [0 0 0 0] ------- [0:0 3:0 30 1] [34] 0 0
r 3.729602000 _1_ RTR  --- 34 cbr 1020 [13a 1 0 800] ------- [0:0 3:0 30 1] [34] 1 0
f 3.729602000 _1_ RTR  --- 34 cbr 1020 [13a 1 0 800] ------- [0:0 3:0 29 2] [34] 1 0
r 3.739548000 _2_ RTR  --- 34 cbr 1020 [13a 2 1 800] ------- [0:0 3:0 29 2] [34] 2 0
f 3.739548000 _2_ RTR  --- 34 cbr 1020 [13a 2 1 800] ------- [0:0 3:0 28 5] [34] 2 0
r 3.749633127 _5_ RTR  --- 34 cbr 1020 [13a 5 2 800] ------- [0:0 3:0 28 5] [34] 3 0
D 3.749633127 _5_ RTR LOOP 34 cbr 1020 [13a 5 2 800] ------- [0:0 3:0 27 5] [34] 3 0
s 3.800000000 _0_ AGT  --- 35 cbr 1000 [0 0 0 0] ------- [0:0 3:0 32 0] [35] 0 0
r 3.800000000 _0_ RTR  --- 35 cbr 1000 [0 0 0 0] ------- [0:0 3:0 32 0] [35] 0 0
s 3.800000000 _0_ RTR  --- 35 cbr 1020 [0 0 0 0] ------- [0:0 3:0 30 1] [35] 0 0
r 3.809662000 _1_ RTR  --- 35 cbr 1020 [13a 1 0 800] ------- [0:0 3:0 30 1] [35] 1 0
f 3.809662000 _1_ RTR  --- 35 cbr 1020 [13a 1 0 800] ------- [0:0 3:0 29 2] [35] 1 0
r 3.819788000 _2_ RTR  --- 35 cbr 1020 [13a 2 1 800] ------- [0:0 3:0 29 2] [35] 2 0
f 3.819788000 _2_ RTR  --- 35 cbr 1020 [13a 2 1 800] ------- [0:0 3:0 28 5] [35] 2 0
r 3.829993127 _5_ RTR  --- 35 cbr 1020 [13a 5 2 800] ------- [0:0 3:0 28 5] [35] 3 0
D 3.829993127 _5_ RTR LOOP 35 cbr 1020 [13a 5 2 800] ------- [0:0 3:0 27 5] [35] 3 0