s 0.000000000 _0_ RTR  --- 0 AODV 44 [0 0 0 0] ------- [0:255 -1:255 1 0] [0x1 1 [0 2] 4.000000] (HELLO)
s 0.000000000 _1_ RTR  --- 0 AODV 44 [0 0 0 0] ------- [1:255 -1:255 1 0] [0x1 1 [1 2] 4.000000] (HELLO)
s 0.000000000 _2_ RTR  --- 0 AODV 44 [0 0 0 0] ------- [2:255 -1:255 1 0] [0x1 1 [2 2] 4.000000] (HELLO)
s 0.000000000 _3_ RTR  --- 0 AODV 44 [0 0 0 0] ------- [3:255 -1:255 1 0] [0x1 1 [3 2] 4.000000] (HELLO)
s 0.000000000 _4_ RTR  --- 0 AODV 44 [0 0 0 0] ------- [4:255 -1:255 1 0] [0x1 1 [4 2] 4.000000] (HELLO)
s 0.000000000 _5_ RTR  --- 0 AODV 44 [0 0 0 0] ------- [5:255 -1:255 1 0] [0x1 1 [5 2] 4.000000] (HELLO)
s 0.000000000 _6_ RTR  --- 0 AODV 44 [0 0 0 0] ------- [6:255 -1:255 1 0] [0x1 1 [6 2] 4.000000] (HELLO)
r 0.000956376 _2_ RTR  --- 0 AODV 44 [0 ffffffff 5 800] ------- [5:255 -1:255 1 0] [0x1 1 [5 2] 4.000000] (HELLO)
r 0.000956377 _3_ RTR  --- 0 AODV 44 [0 ffffffff 5 800] ------- [5:255 -1:255 1 0] [0x1 1 [5 2] 4.000000] (HELLO)
r 0.000956500 _6_ RTR  --- 0 AODV 44 [0 ffffffff 5 800] ------- [5:255 -1:255 1 0] [0x1 1 [5 2] 4.000000] (HELLO)
r 0.002042754 _5_ RTR  --- 0 AODV 44 [0 ffffffff 3 800] ------- [3:255 -1:255 1 0] [0x1 1 [3 2] 4.000000] (HELLO)
r 0.002042846 _6_ RTR  --- 0 AODV 44 [0 ffffffff 3 800] ------- [3:255 -1:255 1 0] [0x1 1 [3 2] 4.000000] (HELLO)
r 0.002043047 _2_ RTR  --- 0 AODV 44 [0 ffffffff 3 800] ------- [3:255 -1:255 1 0] [0x1 1 [3 2] 4.000000] (HELLO)
r 0.003679384 _5_ RTR  --- 0 AODV 44 [0 ffffffff 2 800] ------- [2:255 -1:255 1 0] [0x1 1 [2 2] 4.000000] (HELLO)
r 0.003679478 _6_ RTR  --- 0 AODV 44 [0 ffffffff 2 800] ------- [2:255 -1:255 1 0] [0x1 1 [2 2] 4.000000] (HELLO)
r 0.003679675 _1_ RTR  --- 0 AODV 44 [0 ffffffff 2 800] ------- [2:255 -1:255 1 0] [0x1 1 [2 2] 4.000000] (HELLO)
r 0.003679679 _3_ RTR  --- 0 AODV 44 [0 ffffffff 2 800] ------- [2:255 -1:255 1 0] [0x1 1 [2 2] 4.000000] (HELLO)
r 0.004646053 _4_ RTR  --- 0 AODV 44 [0 ffffffff 1 800] ------- [1:255 -1:255 1 0] [0x1 1 [1 2] 4.000000] (HELLO)
r 0.004646342 _2_ RTR  --- 0 AODV 44 [0 ffffffff 1 800] ------- [1:255 -1:255 1 0] [0x1 1 [1 2] 4.000000] (HELLO)
r 0.004646342 _0_ RTR  --- 0 AODV 44 [0 ffffffff 1 800] ------- [1:255 -1:255 1 0] [0x1 1 [1 2] 4.000000] (HELLO)
r 0.005612427 _0_ RTR  --- 0 AODV 44 [0 ffffffff 4 800] ------- [4:255 -1:255 1 0] [0x1 1 [4 2] 4.000000] (HELLO)
r 0.005612430 _1_ RTR  --- 0 AODV 44 [0 ffffffff 4 800] ------- [4:255 -1:255 1 0] [0x1 1 [4 2] 4.000000] (HELLO)
r 0.006923949 _3_ RTR  --- 0 AODV 44 [0 ffffffff 6 800] ------- [6:255 -1:255 1 0] [0x1 1 [6 2] 4.000000] (HELLO)
r 0.006923949 _2_ RTR  --- 0 AODV 44 [0 ffffffff 6 800] ------- [6:255 -1:255 1 0] [0x1 1 [6 2] 4.000000] (HELLO)
r 0.006923980 _5_ RTR  --- 0 AODV 44 [0 ffffffff 6 800] ------- [6:255 -1:255 1 0] [0x1 1 [6 2] 4.000000] (HELLO)
s 0.750169789 _0_ RTR  --- 0 AODV 44 [0 0 0 0] ------- [0:255 -1:255 1 0] [0x1 1 [0 6] 4.000000] (HELLO)
r 0.751306163 _4_ RTR  --- 0 AODV 44 [0 ffffffff 0 800] ------- [0:255 -1:255 1 0] [0x1 1 [0 6] 4.000000] (HELLO)
r 0.751306455 _1_ RTR  --- 0 AODV 44 [0 ffffffff 0 800] ------- [0:255 -1:255 1 0] [0x1 1 [0 6] 4.000000] (HELLO)
s 0.757102330 _2_ RTR  --- 0 AODV 44 [0 0 0 0] ------- [2:255 -1:255 1 0] [0x1 1 [2 10] 4.000000] (HELLO)
r 0.758458706 _5_ RTR  --- 0 AODV 44 [0 ffffffff 2 800] ------- [2:255 -1:255 1 0] [0x1 1 [2 10] 4.000000] (HELLO)
r 0.758458799 _6_ RTR  --- 0 AODV 44 [0 ffffffff 2 800] ------- [2:255 -1:255 1 0] [0x1 1 [2 10] 4.000000] (HELLO)
r 0.758458997 _1_ RTR  --- 0 AODV 44 [0 ffffffff 2 800] ------- [2:255 -1:255 1 0] [0x1 1 [2 10] 4.000000] (HELLO)
r 0.758459000 _3_ RTR  --- 0 AODV 44 [0 ffffffff 2 800] ------- [2:255 -1:255 1 0] [0x1 1 [2 10] 4.000000] (HELLO)
s 0.794061336 _3_ RTR  --- 0 AODV 44 [0 0 0 0] ------- [3:255 -1:255 1 0] [0x1 1 [3 8] 4.000000] (HELLO)
r 0.795377713 _5_ RTR  --- 0 AODV 44 [0 ffffffff 3 800] ------- [3:255 -1:255 1 0] [0x1 1 [3 8] 4.000000] (HELLO)
r 0.795377805 _6_ RTR  --- 0 AODV 44 [0 ffffffff 3 800] ------- [3:255 -1:255 1 0] [0x1 1 [3 8] 4.000000] (HELLO)
r 0.795378006 _2_ RTR  --- 0 AODV 44 [0 ffffffff 3 800] ------- [3:255 -1:255 1 0] [0x1 1 [3 8] 4.000000] (HELLO)
s 0.906480886 _6_ RTR  --- 0 AODV 44 [0 0 0 0] ------- [6:255 -1:255 1 0] [0x1 1 [6 8] 4.000000] (HELLO)
r 0.907437355 _3_ RTR  --- 0 AODV 44 [0 ffffffff 6 800] ------- [6:255 -1:255 1 0] [0x1 1 [6 8] 4.000000] (HELLO)
r 0.907437355 _2_ RTR  --- 0 AODV 44 [0 ffffffff 6 800] ------- [6:255 -1:255 1 0] [0x1 1 [6 8] 4.000000] (HELLO)
r 0.907437386 _5_ RTR  --- 0 AODV 44 [0 ffffffff 6 800] ------- [6:255 -1:255 1 0] [0x1 1 [6 8] 4.000000] (HELLO)
s 0.970586691 _4_ RTR  --- 0 AODV 44 [0 0 0 0] ------- [4:255 -1:255 1 0] [0x1 1 [4 6] 4.000000] (HELLO)
r 0.971643065 _0_ RTR  --- 0 AODV 44 [0 ffffffff 4 800] ------- [4:255 -1:255 1 0] [0x1 1 [4 6] 4.000000] (HELLO)
r 0.971643068 _1_ RTR  --- 0 AODV 44 [0 ffffffff 4 800] ------- [4:255 -1:255 1 0] [0x1 1 [4 6] 4.000000] (HELLO)
s 1.000000000 _0_ AGT  --- 0 cbr 1000 [0 0 0 0] ------- [0:0 3:0 32 0] [0] 0 0
r 1.000000000 _0_ RTR  --- 0 cbr 1000 [0 0 0 0] ------- [0:0 3:0 32 0] [0] 0 0
s 1.000000000 _0_ RTR  --- 0 AODV 48 [0 0 0 0] ------- [0:255 -1:255 30 0] [0x2 1 1 [3 0] [0 8]] (REQUEST)
r 1.001228374 _4_ RTR  --- 0 AODV 48 [0 ffffffff 0 800] ------- [0:255 -1:255 30 0] [0x2 1 1 [3 0] [0 8]] (REQUEST)
r 1.001228667 _1_ RTR  --- 0 AODV 48 [0 ffffffff 0 800] ------- [0:255 -1:255 30 0] [0x2 1 1 [3 0] [0 8]] (REQUEST)
s 1.003102027 _4_ RTR  --- 0 AODV 48 [0 ffffffff 0 800] ------- [4:255 -1:255 29 0] [0x2 2 1 [3 0] [0 8]] (REQUEST)
r 1.004270401 _0_ RTR  --- 0 AODV 48 [0 ffffffff 4 800] ------- [4:255 -1:255 29 0] [0x2 2 1 [3 0] [0 8]] (REQUEST)
r 1.004270404 _1_ RTR  --- 0 AODV 48 [0 ffffffff 4 800] ------- [4:255 -1:255 29 0] [0x2 2 1 [3 0] [0 8]] (REQUEST)
s 1.010103102 _1_ RTR  --- 0 AODV 48 [0 ffffffff 0 800] ------- [1:255 -1:255 29 0] [0x2 2 1 [3 0] [0 8]] (REQUEST)
r 1.011631479 _4_ RTR  --- 0 AODV 48 [0 ffffffff 1 800] ------- [1:255 -1:255 29 0] [0x2 2 1 [3 0] [0 8]] (REQUEST)
r 1.011631769 _2_ RTR  --- 0 AODV 48 [0 ffffffff 1 800] ------- [1:255 -1:255 29 0] [0x2 2 1 [3 0] [0 8]] (REQUEST)
r 1.011631769 _0_ RTR  --- 0 AODV 48 [0 ffffffff 1 800] ------- [1:255 -1:255 29 0] [0x2 2 1 [3 0] [0 8]] (REQUEST)
s 1.011739852 _2_ RTR  --- 0 AODV 48 [0 ffffffff 1 800] ------- [2:255 -1:255 28 0] [0x2 3 1 [3 0] [0 8]] (REQUEST)
r 1.013028228 _5_ RTR  --- 0 AODV 48 [0 ffffffff 2 800] ------- [2:255 -1:255 28 0] [0x2 3 1 [3 0] [0 8]] (REQUEST)
s 1.013028228 _5_ RTR  --- 0 AODV 44 [0 0 0 0] ------- [5:255 0:255 30 2] [0x4 1 [3 10] 10.000000] (REPLY)
r 1.013028321 _6_ RTR  --- 0 AODV 48 [0 ffffffff 2 800] ------- [2:255 -1:255 28 0] [0x2 3 1 [3 0] [0 8]] (REQUEST)
r 1.013028519 _1_ RTR  --- 0 AODV 48 [0 ffffffff 2 800] ------- [2:255 -1:255 28 0] [0x2 3 1 [3 0] [0 8]] (REQUEST)
r 1.013028522 _3_ RTR  --- 0 AODV 48 [0 ffffffff 2 800] ------- [2:255 -1:255 28 0] [0x2 3 1 [3 0] [0 8]] (REQUEST)
s 1.013028522 _3_ RTR  --- 0 AODV 44 [0 0 0 0] ------- [3:255 0:255 30 2] [0x4 1 [3 10] 10.000000] (REPLY)
s 1.014259356 _6_ RTR  --- 0 AODV 48 [0 ffffffff 2 800] ------- [6:255 -1:255 27 0] [0x2 4 1 [3 0] [0 8]] (REQUEST)
r 1.015713543 _3_ RTR  --- 0 AODV 48 [0 ffffffff 6 800] ------- [6:255 -1:255 27 0] [0x2 4 1 [3 0] [0 8]] (REQUEST)
r 1.015713543 _2_ RTR  --- 0 AODV 48 [0 ffffffff 6 800] ------- [6:255 -1:255 27 0] [0x2 4 1 [3 0] [0 8]] (REQUEST)
r 1.015713574 _5_ RTR  --- 0 AODV 48 [0 ffffffff 6 800] ------- [6:255 -1:255 27 0] [0x2 4 1 [3 0] [0 8]] (REQUEST)
r 1.021096560 _2_ RTR  --- 0 AODV 44 [13a 2 5 800] ------- [5:255 0:255 30 2] [0x4 1 [3 10] 10.000000] (REPLY)
f 1.021096560 _2_ RTR  --- 0 AODV 44 [13a 2 5 800] ------- [5:255 0:255 29 1] [0x4 2 [3 10] 10.000000] (REPLY)
r 1.023913240 _2_ RTR  --- 0 AODV 44 [13a 2 3 800] ------- [3:255 0:255 30 2] [0x4 1 [3 10] 10.000000] (REPLY)
r 1.027931907 _1_ RTR  --- 0 AODV 44 [13a 1 2 800] ------- [5:255 0:255 29 1] [0x4 2 [3 10] 10.000000] (REPLY)
f 1.027931907 _1_ RTR  --- 0 AODV 44 [13a 1 2 800] ------- [5:255 0:255 28 0] [0x4 3 [3 10] 10.000000] (REPLY)
s 1.027940358 _1_ RTR  --- 0 AODV 44 [0 0 0 0] ------- [1:255 -1:255 1 0] [0x1 1 [1 8] 4.000000] (HELLO)
r 1.032365951 _4_ RTR  --- 0 AODV 44 [0 ffffffff 1 800] ------- [1:255 -1:255 1 0] [0x1 1 [1 8] 4.000000] (HELLO)
r 1.032366241 _2_ RTR  --- 0 AODV 44 [0 ffffffff 1 800] ------- [1:255 -1:255 1 0] [0x1 1 [1 8] 4.000000] (HELLO)
r 1.032366241 _0_ RTR  --- 0 AODV 44 [0 ffffffff 1 800] ------- [1:255 -1:255 1 0] [0x1 1 [1 8] 4.000000] (HELLO)
r 1.034029574 _0_ RTR  --- 0 AODV 44 [13a 0 1 800] ------- [5:255 0:255 28 0] [0x4 3 [3 10] 10.000000] (REPLY)
s 1.034029574 _0_ RTR  --- 0 cbr 1020 [0 0 0 0] ------- [0:0 3:0 30 1] [0] 0 0
r 1.043815574 _1_ RTR  --- 0 cbr 1020 [13a 1 0 800] ------- [0:0 3:0 30 1] [0] 1 0
f 1.043815574 _1_ RTR  --- 0 cbr 1020 [13a 1 0 800] ------- [0:0 3:0 29 2] [0] 1 0
r 1.053581574 _2_ RTR  --- 0 cbr 1020 [13a 2 1 800] ------- [0:0 3:0 29 2] [0] 2 0
f 1.053581574 _2_ RTR  --- 0 cbr 1020 [13a 2 1 800] ------- [0:0 3:0 28 5] [0] 2 0
r 1.063326701 _5_ RTR  --- 0 cbr 1020 [13a 5 2 800] ------- [0:0 3:0 28 5] [0] 3 0
D 1.063326701 _5_ RTR LOOP 0 cbr 1020 [13a 5 2 800] ------- [0:0 3:0 27 5] [0] 3 0
s 1.080000000 _0_ AGT  --- 1 cbr 1000 [0 0 0 0] ------- [0:0 3:0 32 0] [1] 0 0
r 1.080000000 _0_ RTR  --- 1 cbr 1000 [0 0 0 0] ------- [0:0 3:0 32 0] [1] 0 0
s 1.080000000 _0_ RTR  --- 1 cbr 1020 [0 0 0 0] ------- [0:0 3:0 30 1] [1] 0 0
r 1.089462000 _1_ RTR  --- 1 cbr 1020 [13a 1 0 800] ------- [0:0 3:0 30 1] [1] 1 0
f 1.089462000 _1_ RTR  --- 1 cbr 1020 [13a 1 0 800] ------- [0:0 3:0 29 2] [1] 1 0
r 1.099468000 _2_ RTR  --- 1 cbr 1020 [13a 2 1 800] ------- [0:0 3:0 29 2] [1] 2 0
f 1.099468000 _2_ RTR  --- 1 cbr 1020 [13a 2 1 800] ------- [0:0 3:0 28 5] [1] 2 0
r 1.109253127 _5_ RTR  --- 1 cbr 1020 [13a 5 2 800] ------- [0:0 3:0 28 5] [1] 3 0
D 1.109253127 _5_ RTR LOOP 1 cbr 1020 [13a 5 2 800] ------- [0:0 3:0 27 5] [1] 3 0
s 1.149577727 _5_ RTR  --- 0 AODV 44 [0 0 0 0] ------- [5:255 -1:255 1 0] [0x1 1 [5 10] 4.000000] (HELLO)
r 1.151094102 _2_ RTR  --- 0 AODV 44 [0 ffffffff 5 800] ------- [5:255 -1:255 1 0] [0x1 1 [5 10] 4.000000] (HELLO)
r 1.151094104 _3_ RTR  --- 0 AODV 44 [0 ffffffff 5 800] ------- [5:255 -1:255 1 0] [0x1 1 [5 10] 4.000000] (HELLO)
r 1.151094227 _6_ RTR  --- 0 AODV 44 [0 ffffffff 5 800] ------- [5:255 -1:255 1 0] [0x1 1 [5 10] 4.000000] (HELLO)
s 1.160000000 _0_ AGT  --- 2 cbr 1000 [0 0 0 0] ------- [0:0 3:0 32 0] [2] 0 0
r 1.160000000 _0_ RTR  --- 2 cbr 1000 [0 0 0 0] ------- [0:0 3:0 32 0] [2] 0 0
s 1.160000000 _0_ RTR  --- 2 cbr 1020 [0 0 0 0] ------- [0:0 3:0 30 1] [2] 0 0
r 1.169942000 _1_ RTR  --- 2 cbr 1020 [13a 1 0 800] ------- [0:0 3:0 30 1] [2] 1 0
f 1.169942000 _1_ RTR  --- 2 cbr 1020 [13a 1 0 800] ------- [0:0 3:0 29 2] [2] 1 0
r 1.179908000 _2_ RTR  --- 2 cbr 1020 [13a 2 1 800] ------- [0:0 3:0 29 2] [2] 2 0
f 1.179908000 _2_ RTR  --- 2 cbr 1020 [13a 2 1 800] ------- [0:0 3:0 28 5] [2] 2 0
r 1.189873127 _5_ RTR  --- 2 cbr 1020 [13a 5 2 800] ------- [0:0 3:0 28 5] [2] 3 0
D 1.189873127 _5_ RTR LOOP 2 cbr 1020 [13a 5 2 800] ------- [0:0 3:0 27 5] [2] 3 0
s 1.240000000 _0_ AGT  --- 3 cbr 1000 [0 0 0 0] ------- [0:0 3:0 32 0] [3] 0 0
r 1.240000000 _0_ RTR  --- 3 cbr 1000 [0 0 0 0] ------- [0:0 3:0 32 0] [3] 0 0
s 1.240000000 _0_ RTR  --- 3 cbr 1020 [0 0 0 0] ------- [0:0 3:0 30 1] [3] 0 0
r 1.249982000 _1_ RTR  --- 3 cbr 1020 [13a 1 0 800] ------- [0:0 3:0 30 1] [3] 1 0
f 1.249982000 _1_ RTR  --- 3 cbr 1020 [13a 1 0 800] ------- [0:0 3:0 29 2] [3] 1 0
r 1.259868000 _2_ RTR  --- 3 cbr 1020 [13a 2 1 800] ------- [0:0 3:0 29 2] [3] 2 0
f 1.259868000 _2_ RTR  --- 3 cbr 1020 [13a 2 1 800] ------- [0:0 3:0 28 5] [3] 2 0
r 1.269693127 _5_ RTR  --- 3 cbr 1020 [13a 5 2 800] ------- [0:0 3:0 28 5] [3] 3 0
D 1.269693127 _5_ RTR LOOP 3 cbr 1020 [13a 5 2 800] ------- [0:0 3:0 27 5] [3] 3 0
s 1.320000000 _0_ AGT  --- 4 cbr 1000 [0 0 0 0] ------- [0:0 3:0 32 0] [4] 0 0
r 1.320000000 _0_ RTR  --- 4 cbr 1000 [0 0 0 0] ------- [0:0 3:0 32 0] [4] 0 0
s 1.320000000 _0_ RTR  --- 4 cbr 1020 [0 0 0 0] ------- [0:0 3:0 30 1] [4] 0 0
r 1.329522000 _1_ RTR  --- 4 cbr 1020 [13a 1 0 800] ------- [0:0 3:0 30 1] [4] 1 0
f 1.329522000 _1_ RTR  --- 4 cbr 1020 [13a 1 0 800] ------- [0:0 3:0 29 2] [4] 1 0
r 1.339348000 _2_ RTR  --- 4 cbr 1020 [13a 2 1 800] ------- [0:0 3:0 29 2] [4] 2 0
f 1.339348000 _2_ RTR  --- 4 cbr 1020 [13a 2 1 800] ------- [0:0 3:0 28 5] [4] 2 0
r 1.349013127 _5_ RTR  --- 4 cbr 1020 [13a 5 2 800] ------- [0:0 3:0 28 5] [4] 3 0
D 1.349013127 _5_ RTR LOOP 4 cbr 1020 [13a 5 2 800] ------- [0:0 3:0 27 5] [4] 3 0
s 1.400000000 _0_ AGT  --- 5 cbr 1000 [0 0 0 0] ------- [0:0 3:0 32 0] [5] 0 0
r 1.400000000 _0_ RTR  --- 5 cbr 1000 [0 0 0 0] ------- [0:0 3:0 32 0] [5] 0 0
s 1.400000000 _0_ RTR  --- 5 cbr 1020 [0 0 0 0] ------- [0:0 3:0 30 1] [5] 0 0
r 1.409722000 _1_ RTR  --- 5 cbr 1020 [13a 1 0 800] ------- [0:0 3:0 30 1] [5] 1 0
f 1.409722000 _1_ RTR  --- 5 cbr 1020 [13a 1 0 800] ------- [0:0 3:0 29 2] [5] 1 0
r 1.419808000 _2_ RTR  --- 5 cbr 1020 [13a 2 1 800] ------- [0:0 3:0 29 2] [5] 2 0
f 1.419808000 _2_ RTR  --- 5 cbr 1020 [13a 2 1 800] ------- [0:0 3:0 28 5] [5] 2 0
r 1.429793127 _5_ RTR  --- 5 cbr 1020 [13a 5 2 800] ------- [0:0 3:0 28 5] [5] 3 0
D 1.429793127 _5_ RTR LOOP 5 cbr 1020 [13a 5 2 800] ------- [0:0 3:0 27 5] [5] 3 0
s 1.480000000 _0_ AGT  --- 6 cbr 1000 [0 0 0 0] ------- [0:0 3:0 32 0] [6] 0 0
r 1.480000000 _0_ RTR  --- 6 cbr 1000 [0 0 0 0] ------- [0:0 3:0 32 0] [6] 0 0
s 1.480000000 _0_ RTR  --- 6 cbr 1020 [0 0 0 0] ------- [0:0 3:0 30 1] [6] 0 0
r 1.489662000 _1_ RTR  --- 6 cbr 1020 [13a 1 0 800] ------- [0:0 3:0 30 1] [6] 1 0
f 1.489662000 _1_ RTR  --- 6 cbr 1020 [13a 1 0 800] ------- [0:0 3:0 29 2] [6] 1 0
r 1.499428000 _2_ RTR  --- 6 cbr 1020 [13a 2 1 800] ------- [0:0 3:0 29 2] [6] 2 0
f 1.499428000 _2_ RTR  --- 6 cbr 1020 [13a 2 1 800] ------- [0:0 3:0 28 5] [6] 2 0
r 1.509153127 _5_ RTR  --- 6 cbr 1020 [13a 5 2 800] ------- [0:0 3:0 28 5] [6] 3 0
D 1.509153127 _5_ RTR LOOP 6 cbr 1020 [13a 5 2 800] ------- [0:0 3:0 27 5] [6] 3 0
s 1.560000000 _0_ AGT  --- 7 cbr 1000 [0 0 0 0] ------- [0:0 3:0 32 0] [7] 0 0
r 1.560000000 _0_ RTR  --- 7 cbr 1000 [0 0 0 0] ------- [0:0 3:0 32 0] [7] 0 0
s 1.560000000 _0_ RTR  --- 7 cbr 1020 [0 0 0 0] ------- [0:0 3:0 30 1] [7] 0 0
r 1.569822000 _1_ RTR  --- 7 cbr 1020 [13a 1 0 800] ------- [0:0 3:0 30 1] [7] 1 0
f 1.569822000 _1_ RTR  --- 7 cbr 1020 [13a 1 0 800] ------- [0:0 3:0 29 2] [7] 1 0
r 1.579508000 _2_ RTR  --- 7 cbr 1020 [13a 2 1 800] ------- [0:0 3:0 29 2] [7] 2 0
f 1.579508000 _2_ RTR  --- 7 cbr 1020 [13a 2 1 800] ------- [0:0 3:0 28 5] [7] 2 0
r 1.589233127 _5_ RTR  --- 7 cbr 1020 [13a 5 2 800] ------- [0:0 3:0 28 5] [7] 3 0
D 1.589233127 _5_ RTR LOOP 7 cbr 1020 [13a 5 2 800] ------- [0:0 3:0 27 5] [7] 3 0
s 1.640000000 _0_ AGT  --- 8 cbr 1000 [0 0 0 0] ------- [0:0 3:0 32 0] [8] 0 0
r 1.640000000 _0_ RTR  --- 8 cbr 1000 [0 0 0 0] ------- [0:0 3:0 32 0] [8] 0 0
s 1.640000000 _0_ RTR  --- 8 cbr 1020 [0 0 0 0] ------- [0:0 3:0 30 1] [8] 0 0
r 1.649422000 _1_ RTR  --- 8 cbr 1020 [13a 1 0 800] ------- [0:0 3:0 30 1] [8] 1 0
f 1.649422000 _1_ RTR  --- 8 cbr 1020 [13a 1 0 800] ------- [0:0 3:0 29 2] [8] 1 0
r 1.659468000 _2_ RTR  --- 8 cbr 1020 [13a 2 1 800] ------- [0:0 3:0 29 2] [8] 2 0
f 1.659468000 _2_ RTR  --- 8 cbr 1020 [13a 2 1 800] ------- [0:0 3:0 28 5] [8] 2 0
r 1.669513127 _5_ RTR  --- 8 cbr 1020 [13a 5 2 800] ------- [0:0 3:0 28 5] [8] 3 0
D 1.669513127 _5_ RTR LOOP 8 cbr 1020 [13a 5 2 800] ------- [0:0 3:0 27 5] [8] 3 0
s 1.674540301 _0_ RTR  --- 0 AODV 44 [0 0 0 0] ------- [0:255 -1:255 1 0] [0x1 1 [0 8] 4.000000] (HELLO)
r 1.675996676 _4_ RTR  --- 0 AODV 44 [0 ffffffff 0 800] ------- [0:255 -1:255 1 0] [0x1 1 [0 8] 4.000000] (HELLO)
r 1.675996968 _1_ RTR  --- 0 AODV 44 [0 ffffffff 0 800] ------- [0:255 -1:255 1 0] [0x1 1 [0 8] 4.000000] (HELLO)
s 1.720000000 _0_ AGT  --- 9 cbr 1000 [0 0 0 0] ------- [0:0 3:0 32 0] [9] 0 0
r 1.720000000 _0_ RTR  --- 9 cbr 1000 [0 0 0 0] ------- [0:0 3:0 32 0] [9] 0 0
s 1.720000000 _0_ RTR  --- 9 cbr 1020 [0 0 0 0] ------- [0:0 3:0 30 1] [9] 0 0
r 1.729542000 _1_ RTR  --- 9 cbr 1020 [13a 1 0 800] ------- [0:0 3:0 30 1] [9] 1 0
f 1.729542000 _1_ RTR  --- 9 cbr 1020 [13a 1 0 800] ------- [0:0 3:0 29 2] [9] 1 0
r 1.739448000 _2_ RTR  --- 9 cbr 1020 [13a 2 1 800] ------- [0:0 3:0 29 2] [9] 2 0
f 1.739448000 _2_ RTR  --- 9 cbr 1020 [13a 2 1 800] ------- [0:0 3:0 28 5] [9] 2 0
r 1.749213127 _5_ RTR  --- 9 cbr 1020 [13a 5 2 800] ------- [0:0 3:0 28 5] [9] 3 0
D 1.749213127 _5_ RTR LOOP 9 cbr 1020 [13a 5 2 800] ------- [0:0 3:0 27 5] [9] 3 0
s 1.766426728 _2_ RTR  --- 0 AODV 44 [0 0 0 0] ------- [2:255 -1:255 1 0] [0x1 1 [2 10] 4.000000] (HELLO)
r 1.767923103 _5_ RTR  --- 0 AODV 44 [0 ffffffff 2 800] ------- [2:255 -1:255 1 0] [0x1 1 [2 10] 4.000000] (HELLO)
r 1.767923197 _6_ RTR  --- 0 AODV 44 [0 ffffffff 2 800] ------- [2:255 -1:255 1 0] [0x1 1 [2 10] 4.000000] (HELLO)
r 1.767923394 _1_ RTR  --- 0 AODV 44 [0 ffffffff 2 800] ------- [2:255 -1:255 1 0] [0x1 1 [2 10] 4.000000] (HELLO)
r 1.767923398 _3_ RTR  --- 0 AODV 44 [0 ffffffff 2 800] ------- [2:255 -1:255 1 0] [0x1 1 [2 10] 4.000000] (HELLO)
s 1.777093700 _6_ RTR  --- 0 AODV 44 [0 0 0 0] ------- [6:255 -1:255 1 0] [0x1 1 [6 8] 4.000000] (HELLO)
r 1.778530169 _3_ RTR  --- 0 AODV 44 [0 ffffffff 6 800] ------- [6:255 -1:255 1 0] [0x1 1 [6 8] 4.000000] (HELLO)
r 1.778530169 _2_ RTR  --- 0 AODV 44 [0 ffffffff 6 800] ------- [6:255 -1:255 1 0] [0x1 1 [6 8] 4.000000] (HELLO)
r 1.778530200 _5_ RTR  --- 0 AODV 44 [0 ffffffff 6 800] ------- [6:255 -1:255 1 0] [0x1 1 [6 8] 4.000000] (HELLO)
s 1.800000000 _0_ AGT  --- 10 cbr 1000 [0 0 0 0] ------- [0:0 3:0 32 0] [10] 0 0
r 1.800000000 _0_ RTR  --- 10 cbr 1000 [0 0 0 0] ------- [0:0 3:0 32 0] [10] 0 0
s 1.800000000 _0_ RTR  --- 10 cbr 1020 [0 0 0 0] ------- [0:0 3:0 30 1] [10] 0 0
r 1.809642000 _1_ RTR  --- 10 cbr 1020 [13a 1 0 800] ------- [0:0 3:0 30 1] [10] 1 0
f 1.809642000 _1_ RTR  --- 10 cbr 1020 [13a 1 0 800] ------- [0:0 3:0 29 2] [10] 1 0
r 1.819828000 _2_ RTR  --- 10 cbr 1020 [13a 2 1 800] ------- [0:0 3:0 29 2] [10] 2 0
f 1.819828000 _2_ RTR  --- 10 cbr 1020 [13a 2 1 800] ------- [0:0 3:0 28 5] [10] 2 0
r 1.829673127 _5_ RTR  --- 10 cbr 1020 [13a 5 2 800] ------- [0:0 3:0 28 5] [10] 3 0
D 1.829673127 _5_ RTR LOOP 10 cbr 1020 [13a 5 2 800] ------- [0:0 3:0 27 5] [10] 3 0
s 1.867304283 _1_ RTR  --- 0 AODV 44 [0 0 0 0] ------- [1:255 -1:255 1 0] [0x1 1 [1 8] 4.000000] (HELLO)
r 1.868460660 _4_ RTR  --- 0 AODV 44 [0 ffffffff 1 800] ------- [1:255 -1:255 1 0] [0x1 1 [1 8] 4.000000] (HELLO)
r 1.868460950 _2_ RTR  --- 0 AODV 44 [0 ffffffff 1 800] ------- [1:255 -1:255 1 0] [0x1 1 [1 8] 4.000000] (HELLO)
r 1.868460950 _0_ RTR  --- 0 AODV 44 [0 ffffffff 1 800] ------- [1:255 -1:255 1 0] [0x1 1 [1 8] 4.000000] (HELLO)
s 1.880000000 _0_ AGT  --- 11 cbr 1000 [0 0 0 0] ------- [0:0 3:0 32 0] [11] 0 0
r 1.880000000 _0_ RTR  --- 11 cbr 1000 [0 0 0 0] ------- [0:0 3:0 32 0] [11] 0 0
s 1.880000000 _0_ RTR  --- 11 cbr 1020 [0 0 0 0] ------- [0:0 3:0 30 1] [11] 0 0
r 1.889522000 _1_ RTR  --- 11 cbr 1020 [13a 1 0 800] ------- [0:0 3:0 30 1] [11] 1 0
f 1.889522000 _1_ RTR  --- 11 cbr 1020 [13a 1 0 800] ------- [0:0 3:0 29 2] [11] 1 0
r 1.899548000 _2_ RTR  --- 11 cbr 1020 [13a 2 1 800] ------- [0:0 3:0 29 2] [11] 2 0
f 1.899548000 _2_ RTR  --- 11 cbr 1020 [13a 2 1 800] ------- [0:0 3:0 28 5] [11] 2 0
r 1.909713127 _5_ RTR  --- 11 cbr 1020 [13a 5 2 800] ------- [0:0 3:0 28 5] [11] 3 0
D 1.909713127 _5_ RTR LOOP 11 cbr 1020 [13a 5 2 800] ------- [0:0 3:0 27 5] [11] 3 0
s 1.960000000 _0_ AGT  --- 12 cbr 1000 [0 0 0 0] ------- [0:0 3:0 32 0] [12] 0 0
r 1.960000000 _0_ RTR  --- 12 cbr 1000 [0 0 0 0] ------- [0:0 3:0 32 0] [12] 0 0
s 1.960000000 _0_ RTR  --- 12 cbr 1020 [0 0 0 0] ------- [0:0 3:0 30 1] [12] 0 0
r 1.969942000 _1_ RTR  --- 12 cbr 1020 [13a 1 0 800] ------- [0:0 3:0 30 1] [12] 1 0
f 1.969942000 _1_ RTR  --- 12 cbr 1020 [13a 1 0 800] ------- [0:0 3:0 29 2] [12] 1 0
s 1.975094976 _3_ RTR  --- 0 AODV 44 [0 0 0 0] ------- [3:255 -1:255 1 0] [0x1 1 [3 10] 4.000000] (HELLO)
r 1.980148000 _2_ RTR  --- 12 cbr 1020 [13a 2 1 800] ------- [0:0 3:0 29 2] [12] 2 0
f 1.980148000 _2_ RTR  --- 12 cbr 1020 [13a 2 1 800] ------- [0:0 3:0 28 5] [12] 2 0
r 1.989813127 _5_ RTR  --- 12 cbr 1020 [13a 5 2 800] ------- [0:0 3:0 28 5] [12] 3 0
D 1.989813127 _5_ RTR LOOP 12 cbr 1020 [13a 5 2 800] ------- [0:0 3:0 27 5] [12] 3 0
r 1.991353882 _5_ RTR  --- 0 AODV 44 [0 ffffffff 3 800] ------- [3:255 -1:255 1 0] [0x1 1 [3 10] 4.000000] (HELLO)
r 1.991353973 _6_ RTR  --- 0 AODV 44 [0 ffffffff 3 800] ------- [3:255 -1:255 1 0] [0x1 1 [3 10] 4.000000] (HELLO)
r 1.991354174 _2_ RTR  --- 0 AODV 44 [0 ffffffff 3 800] ------- [3:255 -1:255 1 0] [0x1 1 [3 10] 4.000000] (HELLO)
s 2.040000000 _0_ AGT  --- 13 cbr 1000 [0 0 0 0] ------- [0:0 3:0 32 0] [13] 0 0
r 2.040000000 _0_ RTR  --- 13 cbr 1000 [0 0 0 0] ------- [0:0 3:0 32 0] [13] 0 0
s 2.040000000 _0_ RTR  --- 13 cbr 1020 [0 0 0 0] ------- [0:0 3:0 30 1] [13] 0 0
r 2.049742000 _1_ RTR  --- 13 cbr 1020 [13a 1 0 800] ------- [0:0 3:0 30 1] [13] 1 0
f 2.049742000 _1_ RTR  --- 13 cbr 1020 [13a 1 0 800] ------- [0:0 3:0 29 2] [13] 1 0
r 2.059728000 _2_ RTR  --- 13 cbr 1020 [13a 2 1 800] ------- [0:0 3:0 29 2] [13] 2 0
f 2.059728000 _2_ RTR  --- 13 cbr 1020 [13a 2 1 800] ------- [0:0 3:0 28 5] [13] 2 0
r 2.069433127 _5_ RTR  --- 13 cbr 1020 [13a 5 2 800] ------- [0:0 3:0 28 5] [13] 3 0
D 2.069433127 _5_ RTR LOOP 13 cbr 1020 [13a 5 2 800] ------- [0:0 3:0 27 5] [13] 3 0
s 2.077607017 _5_ RTR  --- 0 AODV 44 [0 0 0 0] ------- [5:255 -1:255 1 0] [0x1 1 [5 10] 4.000000] (HELLO)
r 2.079123393 _2_ RTR  --- 0 AODV 44 [0 ffffffff 5 800] ------- [5:255 -1:255 1 0] [0x1 1 [5 10] 4.000000] (HELLO)
r 2.079123394 _3_ RTR  --- 0 AODV 44 [0 ffffffff 5 800] ------- [5:255 -1:255 1 0] [0x1 1 [5 10] 4.000000] (HELLO)
r 2.079123517 _6_ RTR  --- 0 AODV 44 [0 ffffffff 5 800] ------- [5:255 -1:255 1 0] [0x1 1 [5 10] 4.000000] (HELLO)
s 2.101702637 _4_ RTR  --- 0 AODV 44 [0 0 0 0] ------- [4:255 -1:255 1 0] [0x1 1 [4 6] 4.000000] (HELLO)
r 2.102939012 _0_ RTR  --- 0 AODV 44 [0 ffffffff 4 800] ------- [4:255 -1:255 1 0] [0x1 1 [4 6] 4.000000] (HELLO)
r 2.102939015 _1_ RTR  --- 0 AODV 44 [0 ffffffff 4 800] ------- [4:255 -1:255 1 0] [0x1 1 [4 6] 4.000000] (HELLO)
s 2.120000000 _0_ AGT  --- 14 cbr 1000 [0 0 0 0] ------- [0:0 3:0 32 0] [14] 0 0
r 2.120000000 _0_ RTR  --- 14 cbr 1000 [0 0 0 0] ------- [0:0 3:0 32 0] [14] 0 0
s 2.120000000 _0_ RTR  --- 14 cbr 1020 [0 0 0 0] ------- [0:0 3:0 30 1] [14] 0 0
r 2.129462000 _1_ RTR  --- 14 cbr 1020 [13a 1 0 800] ------- [0:0 3:0 30 1] [14] 1 0
f 2.129462000 _1_ RTR  --- 14 cbr 1020 [13a 1 0 800] ------- [0:0 3:0 29 2] [14] 1 0
r 2.139428000 _2_ RTR  --- 14 cbr 1020 [13a 2 1 800] ------- [0:0 3:0 29 2] [14] 2 0
f 2.139428000 _2_ RTR  --- 14 cbr 1020 [13a 2 1 800] ------- [0:0 3:0 28 5] [14] 2 0
r 2.149213127 _5_ RTR  --- 14 cbr 1020 [13a 5 2 800] ------- [0:0 3:0 28 5] [14] 3 0
D 2.149213127 _5_ RTR LOOP 14 cbr 1020 [13a 5 2 800] ------- [0:0 3:0 27 5] [14] 3 0
s 2.200000000 _0_ AGT  --- 15 cbr 1000 [0 0 0 0] ------- [0:0 3:0 32 0] [15] 0 0
r 2.200000000 _0_ RTR  --- 15 cbr 1000 [0 0 0 0] ------- [0:0 3:0 32 0] [15] 0 0
s 2.200000000 _0_ RTR  --- 15 cbr 1020 [0 0 0 0] ------- [0:0 3:0 30 1] [15] 0 0
r 2.209402000 _1_ RTR  --- 15 cbr 1020 [13a 1 0 800] ------- [0:0 3:0 30 1] [15] 1 0
f 2.209402000 _1_ RTR  --- 15 cbr 1020 [13a 1 0 800] ------- [0:0 3:0 29 2] [15] 1 0
r 2.219148000 _2_ RTR  --- 15 cbr 1020 [13a 2 1 800] ------- [0:0 3:0 29 2] [15] 2 0
f 2.219148000 _2_ RTR  --- 15 cbr 1020 [13a 2 1 800] ------- [0:0 3:0 28 5] [15] 2 0
r 2.229273127 _5_ RTR  --- 15 cbr 1020 [13a 5 2 800] ------- [0:0 3:0 28 5] [15] 3 0
D 2.229273127 _5_ RTR LOOP 15 cbr 1020 [13a 5 2 800] ------- [0:0 3:0 27 5] [15] 3 0
s 2.280000000 _0_ AGT  --- 16 cbr 1000 [0 0 0 0] ------- [0:0 3:0 32 0] [16] 0 0
r 2.280000000 _0_ RTR  --- 16 cbr 1000 [0 0 0 0] ------- [0:0 3:0 32 0] [16] 0 0
s 2.280000000 _0_ RTR  --- 16 cbr 1020 [0 0 0 0] ------- [0:0 3:0 30 1] [16] 0 0
r 2.289762000 _1_ RTR  --- 16 cbr 1020 [13a 1 0 800] ------- [0:0 3:0 30 1] [16] 1 0
f 2.289762000 _1_ RTR  --- 16 cbr 1020 [13a 1 0 800] ------- [0:0 3:0 29 2] [16] 1 0
r 2.299528000 _2_ RTR  --- 16 cbr 1020 [13a 2 1 800] ------- [0:0 3:0 29 2] [16] 2 0
f 2.299528000 _2_ RTR  --- 16 cbr 1020 [13a 2 1 800] ------- [0:0 3:0 28 5] [16] 2 0
r 2.309713127 _5_ RTR  --- 16 cbr 1020 [13a 5 2 800] ------- [0:0 3:0 28 5] [16] 3 0
D 2.309713127 _5_ RTR LOOP 16 cbr 1020 [13a 5 2 800] ------- [0:0 3:0 27 5] [16] 3 0
s 2.360000000 _0_ AGT  --- 17 cbr 1000 [0 0 0 0] ------- [0:0 3:0 32 0] [17] 0 0
r 2.360000000 _0_ RTR  --- 17 cbr 1000 [0 0 0 0] ------- [0:0 3:0 32 0] [17] 0 0
s 2.360000000 _0_ RTR  --- 17 cbr 1020 [0 0 0 0] ------- [0:0 3:0 30 1] [17] 0 0
r 2.369862000 _1_ RTR  --- 17 cbr 1020 [13a 1 0 800] ------- [0:0 3:0 30 1] [17] 1 0
f 2.369862000 _1_ RTR  --- 17 cbr 1020 [13a 1 0 800] ------- [0:0 3:0 29 2] [17] 1 0
r 2.379588000 _2_ RTR  --- 17 cbr 1020 [13a 2 1 800] ------- [0:0 3:0 29 2] [17] 2 0
f 2.379588000 _2_ RTR  --- 17 cbr 1020 [13a 2 1 800] ------- [0:0 3:0 28 5] [17] 2 0
r 2.389573127 _5_ RTR  --- 17 cbr 1020 [13a 5 2 800] ------- [0:0 3:0 28 5] [17] 3 0
D 2.389573127 _5_ RTR LOOP 17 cbr 1020 [13a 5 2 800] ------- [0:0 3:0 27 5] [17] 3 0
s 2.440000000 _0_ AGT  --- 18 cbr 1000 [0 0 0 0] ------- [0:0 3:0 32 0] [18] 0 0
r 2.440000000 _0_ RTR  --- 18 cbr 1000 [0 0 0 0] ------- [0:0 3:0 32 0] [18] 0 0
s 2.440000000 _0_ RTR  --- 18 cbr 1020 [0 0 0 0] ------- [0:0 3:0 30 1] [18] 0 0
r 2.449662000 _1_ RTR  --- 18 cbr 1020 [13a 1 0 800] ------- [0:0 3:0 30 1] [18] 1 0
f 2.449662000 _1_ RTR  --- 18 cbr 1020 [13a 1 0 800] ------- [0:0 3:0 29 2] [18] 1 0
r 2.459688000 _2_ RTR  --- 18 cbr 1020 [13a 2 1 800] ------- [0:0 3:0 29 2] [18] 2 0
f 2.459688000 _2_ RTR  --- 18 cbr 1020 [13a 2 1 800] ------- [0:0 3:0 28 5] [18] 2 0
r 2.469513127 _5_ RTR  --- 18 cbr 1020 [13a 5 2 800] ------- [0:0 3:0 28 5] [18] 3 0
D 2.469513127 _5_ RTR LOOP 18 cbr 1020 [13a 5 2 800] ------- [0:0 3:0 27 5] [18] 3 0
s 2.503797160 _0_ RTR  --- 0 AODV 44 [0 0 0 0] ------- [0:255 -1:255 1 0] [0x1 1 [0 8] 4.000000] (HELLO)
r 2.505073534 _4_ RTR  --- 0 AODV 44 [0 ffffffff 0 800] ------- [0:255 -1:255 1 0] [0x1 1 [0 8] 4.000000] (HELLO)
r 2.505073827 _1_ RTR  --- 0 AODV 44 [0 ffffffff 0 800] ------- [0:255 -1:255 1 0] [0x1 1 [0 8] 4.000000] (HELLO)
s 2.520000000 _0_ AGT  --- 19 cbr 1000 [0 0 0 0] ------- [0:0 3:0 32 0] [19] 0 0
r 2.520000000 _0_ RTR  --- 19 cbr 1000 [0 0 0 0] ------- [0:0 3:0 32 0] [19] 0 0
s 2.520000000 _0_ RTR  --- 19 cbr 1020 [0 0 0 0] ------- [0:0 3:0 30 1] [19] 0 0
r 2.529862000 _1_ RTR  --- 19 cbr 1020 [13a 1 0 800] ------- [0:0 3:0 30 1] [19] 1 0
f 2.529862000 _1_ RTR  --- 19 cbr 1020 [13a 1 0 800] ------- [0:0 3:0 29 2] [19] 1 0
r 2.539788000 _2_ RTR  --- 19 cbr 1020 [13a 2 1 800] ------- [0:0 3:0 29 2] [19] 2 0
f 2.539788000 _2_ RTR  --- 19 cbr 1020 [13a 2 1 800] ------- [0:0 3:0 28 5] [19] 2 0
r 2.549873127 _5_ RTR  --- 19 cbr 1020 [13a 5 2 800] ------- [0:0 3:0 28 5] [19] 3 0
D 2.549873127 _5_ RTR LOOP 19 cbr 1020 [13a 5 2 800] ------- [0:0 3:0 27 5] [19] 3 0
s 2.600000000 _0_ AGT  --- 20 cbr 1000 [0 0 0 0] ------- [0:0 3:0 32 0] [20] 0 0
r 2.600000000 _0_ RTR  --- 20 cbr 1000 [0 0 0 0] ------- [0:0 3:0 32 0] [20] 0 0
s 2.600000000 _0_ RTR  --- 20 cbr 1020 [0 0 0 0] ------- [0:0 3:0 30 1] [20] 0 0
r 2.609802000 _1_ RTR  --- 20 cbr 1020 [13a 1 0 800] ------- [0:0 3:0 30 1] [20] 1 0
f 2.609802000 _1_ RTR  --- 20 cbr 1020 [13a 1 0 800] ------- [0:0 3:0 29 2] [20] 1 0
r 2.619568000 _2_ RTR  --- 20 cbr 1020 [13a 2 1 800] ------- [0:0 3:0 29 2] [20] 2 0
f 2.619568000 _2_ RTR  --- 20 cbr 1020 [13a 2 1 800] ------- [0:0 3:0 28 5] [20] 2 0
r 2.629753127 _5_ RTR  --- 20 cbr 1020 [13a 5 2 800] ------- [0:0 3:0 28 5] [20] 3 0
D 2.629753127 _5_ RTR LOOP 20 cbr 1020 [13a 5 2 800] ------- [0:0 3:0 27 5] [20] 3 0
s 2.680000000 _0_ AGT  --- 21 cbr 1000 [0 0 0 0] ------- [0:0 3:0 32 0] [21] 0 0
r 2.680000000 _0_ RTR  --- 21 cbr 1000 [0 0 0 0] ------- [0:0 3:0 32 0] [21] 0 0
s 2.680000000 _0_ RTR  --- 21 cbr 1020 [0 0 0 0] ------- [0:0 3:0 30 1] [21] 0 0
r 2.690002000 _1_ RTR  --- 21 cbr 1020 [13a 1 0 800] ------- [0:0 3:0 30 1] [21] 1 0
f 2.690002000 _1_ RTR  --- 21 cbr 1020 [13a 1 0 800] ------- [0:0 3:0 29 2] [21] 1 0
r 2.700248000 _2_ RTR  --- 21 cbr 1020 [13a 2 1 800] ------- [0:0 3:0 29 2] [21] 2 0
f 2.700248000 _2_ RTR  --- 21 cbr 1020 [13a 2 1 800] ------- [0:0 3:0 28 5] [21] 2 0
r 2.709933127 _5_ RTR  --- 21 cbr 1020 [13a 5 2 800] ------- [0:0 3:0 28 5] [21] 3 0
D 2.709933127 _5_ RTR LOOP 21 cbr 1020 [13a 5 2 800] ------- [0:0 3:0 27 5] [21] 3 0
s 2.760000000 _0_ AGT  --- 22 cbr 1000 [0 0 0 0] ------- [0:0 3:0 32 0] [22] 0 0
r 2.760000000 _0_ RTR  --- 22 cbr 1000 [0 0 0 0] ------- [0:0 3:0 32 0] [22] 0 0
s 2.760000000 _0_ RTR  --- 22 cbr 1020 [0 0 0 0] ------- [0:0 3:0 30 1] [22] 0 0
r 2.769822000 _1_ RTR  --- 22 cbr 1020 [13a 1 0 800] ------- [0:0 3:0 30 1] [22] 1 0
f 2.769822000 _1_ RTR  --- 22 cbr 1020 [13a 1 0 800] ------- [0:0 3:0 29 2] [22] 1 0
r 2.780068000 _2_ RTR  --- 22 cbr 1020 [13a 2 1 800] ------- [0:0 3:0 29 2] [22] 2 0
f 2.780068000 _2_ RTR  --- 22 cbr 1020 [13a 2 1 800] ------- [0:0 3:0 28 5] [22] 2 0
r 2.789873127 _5_ RTR  --- 22 cbr 1020 [13a 5 2 800] ------- [0:0 3:0 28 5] [22] 3 0
D 2.789873127 _5_ RTR LOOP 22 cbr 1020 [13a 5 2 800] ------- [0:0 3:0 27 5] [22] 3 0
s 2.840000000 _0_ AGT  --- 23 cbr 1000 [0 0 0 0] ------- [0:0 3:0 32 0] [23] 0 0
r 2.840000000 _0_ RTR  --- 23 cbr 1000 [0 0 0 0] ------- [0:0 3:0 32 0] [23] 0 0
s 2.840000000 _0_ RTR  --- 23 cbr 1020 [0 0 0 0] ------- [0:0 3:0 30 1] [23] 0 0
r 2.849842000 _1_ RTR  --- 23 cbr 1020 [13a 1 0 800] ------- [0:0 3:0 30 1] [23] 1 0
f 2.849842000 _1_ RTR  --- 23 cbr 1020 [13a 1 0 800] ------- [0:0 3:0 29 2] [23] 1 0
r 2.859628000 _2_ RTR  --- 23 cbr 1020 [13a 2 1 800] ------- [0:0 3:0 29 2] [23] 2 0
f 2.859628000 _2_ RTR  --- 23 cbr 1020 [13a 2 1 800] ------- [0:0 3:0 28 5] [23] 2 0