n -t * -s 0  -x 99 -y 299 -Z 0 -z 20  -v circle -c black
n -t * -s 1  -x 299 -y 297 -Z 0 -z 20  -v circle -c black
n -t * -s 2  -x 499 -y 298 -Z 0 -z 20  -v circle -c black
n -t * -s 3  -x 700 -y 299 -Z 0 -z 20  -v circle -c black
n -t * -s 4  -x 199 -y 350 -Z 0 -z 20  -v circle -c black
n -t * -s 5  -x 599 -y 350 -Z 0 -z 20  -v circle -c black
n -t * -s 6  -x 600 -y 200 -Z 0 -z 20  -v circle -c black
V -t * -v 1.0a5 -a 0
W -t * -x 800 -y 541
A -t * -n 1 -p 0 -o 0x7fffffff -c 30 -a 1
A -t * -h 1 -m 1073741823 -s 0
n -t 0 -s 5 -S COLOR -c red -o red -i red -I red
n -t 0 -s 5 -S DLABEL -l "Attacker" -L ""
n -t 0 -s 0 -S COLOR -c green -o green -i green -I green
n -t 0 -s 0 -S DLABEL -l "Source" -L ""
n -t 0 -s 3 -S COLOR -c blue -o blue -i blue -I blue
n -t 0 -s 3 -S DLABEL -l "Destination" -L ""
+ -t 1.000000000 -s 0 -d -1 -p cbr -e 1000 -c 2 -a 0 -i 0 -k AGT 
- -t 1.000000000 -s 0 -d -1 -p cbr -e 1000 -c 2 -a 0 -i 0 -k AGT
h -t 1.000000000 -s 0 -d -1 -p cbr -e 1000 -c 2 -a 0 -i 0 -k AGT
+ -t 1.000000000 -s 0 -d -1 -p AODV -e 48 -c 2 -a 0 -i 0 -k RTR 
- -t 1.000000000 -s 0 -d -1 -p AODV -e 48 -c 2 -a 0 -i 0 -k RTR
h -t 1.000000000 -s 0 -d -1 -p AODV -e 48 -c 2 -a 0 -i 0 -k RTR
r -t 1.001408374 -s 4 -d -1 -p AODV -e 48 -c 2 -a 0 -i 0 -k RTR
r -t 1.001408667 -s 1 -d -1 -p AODV -e 48 -c 2 -a 0 -i 0 -k RTR
+ -t 1.001550421 -s 4 -d -1 -p AODV -e 48 -c 2 -a 0 -i 0 -k RTR 
- -t 1.001550421 -s 4 -d -1 -p AODV -e 48 -c 2 -a 0 -i 0 -k RTR
h -t 1.001550421 -s 4 -d -1 -p AODV -e 48 -c 2 -a 0 -i 0 -k RTR
+ -t 1.002289893 -s 1 -d -1 -p AODV -e 48 -c 2 -a 0 -i 0 -k RTR 
- -t 1.002289893 -s 1 -d -1 -p AODV -e 48 -c 2 -a 0 -i 0 -k RTR
h -t 1.002289893 -s 1 -d -1 -p AODV -e 48 -c 2 -a 0 -i 0 -k RTR
r -t 1.002818795 -s 0 -d -1 -p AODV -e 48 -c 2 -a 0 -i 0 -k RTR
r -t 1.002818798 -s 1 -d -1 -p AODV -e 48 -c 2 -a 0 -i 0 -k RTR
r -t 1.003717175 -s 4 -d -1 -p AODV -e 48 -c 2 -a 0 -i 0 -k RTR
r -t 1.003717465 -s 2 -d -1 -p AODV -e 48 -c 2 -a 0 -i 0 -k RTR
r -t 1.003717465 -s 0 -d -1 -p AODV -e 48 -c 2 -a 0 -i 0 -k RTR
+ -t 1.006063482 -s 2 -d -1 -p AODV -e 48 -c 2 -a 0 -i 0 -k RTR 
- -t 1.006063482 -s 2 -d -1 -p AODV -e 48 -c 2 -a 0 -i 0 -k RTR
h -t 1.006063482 -s 2 -d -1 -p AODV -e 48 -c 2 -a 0 -i 0 -k RTR
r -t 1.007371858 -s 5 -d -1 -p AODV -e 48 -c 2 -a 0 -i 0 -k RTR
+ -t 1.007371858 -s 5 -d 2 -p AODV -e 44 -c 2 -a 0 -i 0 -k RTR 
- -t 1.007371858 -s 5 -d 2 -p AODV -e 44 -c 2 -a 0 -i 0 -k RTR
h -t 1.007371858 -s 5 -d 2 -p AODV -e 44 -c 2 -a 0 -i 0 -k RTR
r -t 1.007371951 -s 6 -d -1 -p AODV -e 48 -c 2 -a 0 -i 0 -k RTR
r -t 1.007372149 -s 1 -d -1 -p AODV -e 48 -c 2 -a 0 -i 0 -k RTR
r -t 1.007372152 -s 3 -d -1 -p AODV -e 48 -c 2 -a 0 -i 0 -k RTR
+ -t 1.007372152 -s 3 -d 2 -p AODV -e 44 -c 2 -a 0 -i 0 -k RTR 
- -t 1.007372152 -s 3 -d 2 -p AODV -e 44 -c 2 -a 0 -i 0 -k RTR
h -t 1.007372152 -s 3 -d 2 -p AODV -e 44 -c 2 -a 0 -i 0 -k RTR
+ -t 1.012751242 -s 2 -d 1 -p AODV -e 44 -c 2 -a 0 -i 0 -k RTR 
- -t 1.012751242 -s 2 -d 1 -p AODV -e 44 -c 2 -a 0 -i 0 -k RTR
h -t 1.012751242 -s 2 -d 1 -p AODV -e 44 -c 2 -a 0 -i 0 -k RTR
+ -t 1.015735187 -s 6 -d -1 -p AODV -e 48 -c 2 -a 0 -i 0 -k RTR 
- -t 1.015735187 -s 6 -d -1 -p AODV -e 48 -c 2 -a 0 -i 0 -k RTR
h -t 1.015735187 -s 6 -d -1 -p AODV -e 48 -c 2 -a 0 -i 0 -k RTR
r -t 1.019151540 -s 3 -d -1 -p AODV -e 48 -c 2 -a 0 -i 0 -k RTR
r -t 1.019151540 -s 2 -d -1 -p AODV -e 48 -c 2 -a 0 -i 0 -k RTR
r -t 1.019151571 -s 5 -d -1 -p AODV -e 48 -c 2 -a 0 -i 0 -k RTR
+ -t 1.023470126 -s 1 -d 0 -p AODV -e 44 -c 2 -a 0 -i 0 -k RTR 
- -t 1.023470126 -s 1 -d 0 -p AODV -e 44 -c 2 -a 0 -i 0 -k RTR
h -t 1.023470126 -s 1 -d 0 -p AODV -e 44 -c 2 -a 0 -i 0 -k RTR
+ -t 1.029001792 -s 0 -d 1 -p cbr -e 1020 -c 2 -a 0 -i 0 -k RTR 
- -t 1.029001792 -s 0 -d 1 -p cbr -e 1020 -c 2 -a 0 -i 0 -k RTR
h -t 1.029001792 -s 0 -d 1 -p cbr -e 1020 -c 2 -a 0 -i 0 -k RTR
+ -t 1.038747793 -s 1 -d 2 -p cbr -e 1020 -c 2 -a 0 -i 0 -k RTR 
- -t 1.038747793 -s 1 -d 2 -p cbr -e 1020 -c 2 -a 0 -i 0 -k RTR
h -t 1.038747793 -s 1 -d 2 -p cbr -e 1020 -c 2 -a 0 -i 0 -k RTR
+ -t 1.048633793 -s 2 -d 5 -p cbr -e 1020 -c 2 -a 0 -i 0 -k RTR 
- -t 1.048633793 -s 2 -d 5 -p cbr -e 1020 -c 2 -a 0 -i 0 -k RTR
h -t 1.048633793 -s 2 -d 5 -p cbr -e 1020 -c 2 -a 0 -i 0 -k RTR
d -t 1.058398920 -s 5 -d 5 -p cbr -e 1020 -c 2 -a 0 -i 0 -k RTR
+ -t 1.080000000 -s 0 -d -1 -p cbr -e 1000 -c 2 -a 0 -i 1 -k AGT 
- -t 1.080000000 -s 0 -d -1 -p cbr -e 1000 -c 2 -a 0 -i 1 -k AGT
h -t 1.080000000 -s 0 -d -1 -p cbr -e 1000 -c 2 -a 0 -i 1 -k AGT
+ -t 1.080000000 -s 0 -d 1 -p cbr -e 1020 -c 2 -a 0 -i 1 -k RTR 
- -t 1.080000000 -s 0 -d 1 -p cbr -e 1020 -c 2 -a 0 -i 1 -k RTR
h -t 1.080000000 -s 0 -d 1 -p cbr -e 1020 -c 2 -a 0 -i 1 -k RTR
+ -t 1.089602000 -s 1 -d 2 -p cbr -e 1020 -c 2 -a 0 -i 1 -k RTR 
- -t 1.089602000 -s 1 -d 2 -p cbr -e 1020 -c 2 -a 0 -i 1 -k RTR
h -t 1.089602000 -s 1 -d 2 -p cbr -e 1020 -c 2 -a 0 -i 1 -k RTR
+ -t 1.099848000 -s 2 -d 5 -p cbr -e 1020 -c 2 -a 0 -i 1 -k RTR 
- -t 1.099848000 -s 2 -d 5 -p cbr -e 1020 -c 2 -a 0 -i 1 -k RTR
h -t 1.099848000 -s 2 -d 5 -p cbr -e 1020 -c 2 -a 0 -i 1 -k RTR
d -t 1.109633127 -s 5 -d 5 -p cbr -e 1020 -c 2 -a 0 -i 1 -k RTR
+ -t 1.160000000 -s 0 -d -1 -p cbr -e 1000 -c 2 -a 0 -i 2 -k AGT 
- -t 1.160000000 -s 0 -d -1 -p cbr -e 1000 -c 2 -a 0 -i 2 -k AGT
h -t 1.160000000 -s 0 -d -1 -p cbr -e 1000 -c 2 -a 0 -i 2 -k AGT
+ -t 1.160000000 -s 0 -d 1 -p cbr -e 1020 -c 2 -a 0 -i 2 -k RTR 
- -t 1.160000000 -s 0 -d 1 -p cbr -e 1020 -c 2 -a 0 -i 2 -k RTR
h -t 1.160000000 -s 0 -d 1 -p cbr -e 1020 -c 2 -a 0 -i 2 -k RTR
+ -t 1.169682000 -s 1 -d 2 -p cbr -e 1020 -c 2 -a 0 -i 2 -k RTR 
- -t 1.169682000 -s 1 -d 2 -p cbr -e 1020 -c 2 -a 0 -i 2 -k RTR
h -t 1.169682000 -s 1 -d 2 -p cbr -e 1020 -c 2 -a 0 -i 2 -k RTR
+ -t 1.179528000 -s 2 -d 5 -p cbr -e 1020 -c 2 -a 0 -i 2 -k RTR 
- -t 1.179528000 -s 2 -d 5 -p cbr -e 1020 -c 2 -a 0 -i 2 -k RTR
h -t 1.179528000 -s 2 -d 5 -p cbr -e 1020 -c 2 -a 0 -i 2 -k RTR
d -t 1.189673127 -s 5 -d 5 -p cbr -e 1020 -c 2 -a 0 -i 2 -k RTR
+ -t 1.240000000 -s 0 -d -1 -p cbr -e 1000 -c 2 -a 0 -i 3 -k AGT 
- -t 1.240000000 -s 0 -d -1 -p cbr -e 1000 -c 2 -a 0 -i 3 -k AGT
h -t 1.240000000 -s 0 -d -1 -p cbr -e 1000 -c 2 -a 0 -i 3 -k AGT
+ -t 1.240000000 -s 0 -d 1 -p cbr -e 1020 -c 2 -a 0 -i 3 -k RTR 
- -t 1.240000000 -s 0 -d 1 -p cbr -e 1020 -c 2 -a 0 -i 3 -k RTR
h -t 1.240000000 -s 0 -d 1 -p cbr -e 1020 -c 2 -a 0 -i 3 -k RTR
+ -t 1.249722000 -s 1 -d 2 -p cbr -e 1020 -c 2 -a 0 -i 3 -k RTR 
- -t 1.249722000 -s 1 -d 2 -p cbr -e 1020 -c 2 -a 0 -i 3 -k RTR
h -t 1.249722000 -s 1 -d 2 -p cbr -e 1020 -c 2 -a 0 -i 3 -k RTR
+ -t 1.259548000 -s 2 -d 5 -p cbr -e 1020 -c 2 -a 0 -i 3 -k RTR 
- -t 1.259548000 -s 2 -d 5 -p cbr -e 1020 -c 2 -a 0 -i 3 -k RTR
h -t 1.259548000 -s 2 -d 5 -p cbr -e 1020 -c 2 -a 0 -i 3 -k RTR
d -t 1.269293127 -s 5 -d 5 -p cbr -e 1020 -c 2 -a 0 -i 3 -k RTR
+ -t 1.320000000 -s 0 -d -1 -p cbr -e 1000 -c 2 -a 0 -i 4 -k AGT 
- -t 1.320000000 -s 0 -d -1 -p cbr -e 1000 -c 2 -a 0 -i 4 -k AGT
h -t 1.320000000 -s 0 -d -1 -p cbr -e 1000 -c 2 -a 0 -i 4 -k AGT
+ -t 1.320000000 -s 0 -d 1 -p cbr -e 1020 -c 2 -a 0 -i 4 -k RTR 
- -t 1.320000000 -s 0 -d 1 -p cbr -e 1020 -c 2 -a 0 -i 4 -k RTR
h -t 1.320000000 -s 0 -d 1 -p cbr -e 1020 -c 2 -a 0 -i 4 -k RTR
+ -t 1.329642000 -s 1 -d 2 -p cbr -e 1020 -c 2 -a 0 -i 4 -k RTR 
- -t 1.329642000 -s 1 -d 2 -p cbr -e 1020 -c 2 -a 0 -i 4 -k RTR
h -t 1.329642000 -s 1 -d 2 -p cbr -e 1020 -c 2 -a 0 -i 4 -k RTR
+ -t 1.339608000 -s 2 -d 5 -p cbr -e 1020 -c 2 -a 0 -i 4 -k RTR 
- -t 1.339608000 -s 2 -d 5 -p cbr -e 1020 -c 2 -a 0 -i 4 -k RTR
h -t 1.339608000 -s 2 -d 5 -p cbr -e 1020 -c 2 -a 0 -i 4 -k RTR
d -t 1.349293127 -s 5 -d 5 -p cbr -e 1020 -c 2 -a 0 -i 4 -k RTR
+ -t 1.400000000 -s 0 -d -1 -p cbr -e 1000 -c 2 -a 0 -i 5 -k AGT 
- -t 1.400000000 -s 0 -d -1 -p cbr -e 1000 -c 2 -a 0 -i 5 -k AGT
h -t 1.400000000 -s 0 -d -1 -p cbr -e 1000 -c 2 -a 0 -i 5 -k AGT
+ -t 1.400000000 -s 0 -d 1 -p cbr -e 1020 -c 2 -a 0 -i 5 -k RTR 
- -t 1.400000000 -s 0 -d 1 -p cbr -e 1020 -c 2 -a 0 -i 5 -k RTR
h -t 1.400000000 -s 0 -d 1 -p cbr -e 1020 -c 2 -a 0 -i 5 -k RTR
+ -t 1.409522000 -s 1 -d 2 -p cbr -e 1020 -c 2 -a 0 -i 5 -k RTR 
- -t 1.409522000 -s 1 -d 2 -p cbr -e 1020 -c 2 -a 0 -i 5 -k RTR
h -t 1.409522000 -s 1 -d 2 -p cbr -e 1020 -c 2 -a 0 -i 5 -k RTR
+ -t 1.419488000 -s 2 -d 5 -p cbr -e 1020 -c 2 -a 0 -i 5 -k RTR 
- -t 1.419488000 -s 2 -d 5 -p cbr -e 1020 -c 2 -a 0 -i 5 -k RTR
h -t 1.419488000 -s 2 -d 5 -p cbr -e 1020 -c 2 -a 0 -i 5 -k RTR
d -t 1.429613127 -s 5 -d 5 -p cbr -e 1020 -c 2 -a 0 -i 5 -k RTR
+ -t 1.480000000 -s 0 -d -1 -p cbr -e 1000 -c 2 -a 0 -i 6 -k AGT 
- -t 1.480000000 -s 0 -d -1 -p cbr -e 1000 -c 2 -a 0 -i 6 -k AGT
h -t 1.480000000 -s 0 -d -1 -p cbr -e 1000 -c 2 -a 0 -i 6 -k AGT
+ -t 1.480000000 -s 0 -d 1 -p cbr -e 1020 -c 2 -a 0 -i 6 -k RTR 
- -t 1.480000000 -s 0 -d 1 -p cbr -e 1020 -c 2 -a 0 -i 6 -k RTR
h -t 1.480000000 -s 0 -d 1 -p cbr -e 1020 -c 2 -a 0 -i 6 -k RTR
+ -t 1.489502000 -s 1 -d 2 -p cbr -e 1020 -c 2 -a 0 -i 6 -k RTR 
- -t 1.489502000 -s 1 -d 2 -p cbr -e 1020 -c 2 -a 0 -i 6 -k RTR
h -t 1.489502000 -s 1 -d 2 -p cbr -e 1020 -c 2 -a 0 -i 6 -k RTR
+ -t 1.499248000 -s 2 -d 5 -p cbr -e 1020 -c 2 -a 0 -i 6 -k RTR 
- -t 1.499248000 -s 2 -d 5 -p cbr -e 1020 -c 2 -a 0 -i 6 -k RTR
h -t 1.499248000 -s 2 -d 5 -p cbr -e 1020 -c 2 -a 0 -i 6 -k RTR
d -t 1.509113127 -s 5 -d 5 -p cbr -e 1020 -c 2 -a 0 -i 6 -k RTR
+ -t 1.560000000 -s 0 -d -1 -p cbr -e 1000 -c 2 -a 0 -i 7 -k AGT 
- -t 1.560000000 -s 0 -d -1 -p cbr -e 1000 -c 2 -a 0 -i 7 -k AGT
h -t 1.560000000 -s 0 -d -1 -p cbr -e 1000 -c 2 -a 0 -i 7 -k AGT
+ -t 1.560000000 -s 0 -d 1 -p cbr -e 1020 -c 2 -a 0 -i 7 -k RTR 
- -t 1.560000000 -s 0 -d 1 -p cbr -e 1020 -c 2 -a 0 -i 7 -k RTR
h -t 1.560000000 -s 0 -d 1 -p cbr -e 1020 -c 2 -a 0 -i 7 -k RTR
+ -t 1.570002000 -s 1 -d 2 -p cbr -e 1020 -c 2 -a 0 -i 7 -k RTR 
- -t 1.570002000 -s 1 -d 2 -p cbr -e 1020 -c 2 -a 0 -i 7 -k RTR
h -t 1.570002000 -s 1 -d 2 -p cbr -e 1020 -c 2 -a 0 -i 7 -k RTR
+ -t 1.579788000 -s 2 -d 5 -p cbr -e 1020 -c 2 -a 0 -i 7 -k RTR 
- -t 1.579788000 -s 2 -d 5 -p cbr -e 1020 -c 2 -a 0 -i 7 -k RTR
h -t 1.579788000 -s 2 -d 5 -p cbr -e 1020 -c 2 -a 0 -i 7 -k RTR
d -t 1.590033127 -s 5 -d 5 -p cbr -e 1020 -c 2 -a 0 -i 7 -k RTR
+ -t 1.640000000 -s 0 -d -1 -p cbr -e 1000 -c 2 -a 0 -i 8 -k AGT 
- -t 1.640000000 -s 0 -d -1 -p cbr -e 1000 -c 2 -a 0 -i 8 -k AGT
h -t 1.640000000 -s 0 -d -1 -p cbr -e 1000 -c 2 -a 0 -i 8 -k AGT
+ -t 1.640000000 -s 0 -d 1 -p cbr -e 1020 -c 2 -a 0 -i 8 -k RTR 
- -t 1.640000000 -s 0 -d 1 -p cbr -e 1020 -c 2 -a 0 -i 8 -k RTR
h -t 1.640000000 -s 0 -d 1 -p cbr -e 1020 -c 2 -a 0 -i 8 -k RTR
+ -t 1.649842000 -s 1 -d 2 -p cbr -e 1020 -c 2 -a 0 -i 8 -k RTR 
- -t 1.649842000 -s 1 -d 2 -p cbr -e 1020 -c 2 -a 0 -i 8 -k RTR
h -t 1.649842000 -s 1 -d 2 -p cbr -e 1020 -c 2 -a 0 -i 8 -k RTR
+ -t 1.660048000 -s 2 -d 5 -p cbr -e 1020 -c 2 -a 0 -i 8 -k RTR 
- -t 1.660048000 -s 2 -d 5 -p cbr -e 1020 -c 2 -a 0 -i 8 -k RTR
h -t 1.660048000 -s 2 -d 5 -p cbr -e 1020 -c 2 -a 0 -i 8 -k RTR
d -t 1.670013127 -s 5 -d 5 -p cbr -e 1020 -c 2 -a 0 -i 8 -k RTR
+ -t 1.720000000 -s 0 -d -1 -p cbr -e 1000 -c 2 -a 0 -i 9 -k AGT 
- -t 1.720000000 -s 0 -d -1 -p cbr -e 1000 -c 2 -a 0 -i 9 -k AGT
h -t 1.720000000 -s 0 -d -1 -p cbr -e 1000 -c 2 -a 0 -i 9 -k AGT
+ -t 1.720000000 -s 0 -d 1 -p cbr -e 1020 -c 2 -a 0 -i 9 -k RTR 
- -t 1.720000000 -s 0 -d 1 -p cbr -e 1020 -c 2 -a 0 -i 9 -k RTR
h -t 1.720000000 -s 0 -d 1 -p cbr -e 1020 -c 2 -a 0 -i 9 -k RTR
+ -t 1.729442000 -s 1 -d 2 -p cbr -e 1020 -c 2 -a 0 -i 9 -k RTR 
- -t 1.729442000 -s 1 -d 2 -p cbr -e 1020 -c 2 -a 0 -i 9 -k RTR
h -t 1.729442000 -s 1 -d 2 -p cbr -e 1020 -c 2 -a 0 -i 9 -k RTR
+ -t 1.739688000 -s 2 -d 5 -p cbr -e 1020 -c 2 -a 0 -i 9 -k RTR 
- -t 1.739688000 -s 2 -d 5 -p cbr -e 1020 -c 2 -a 0 -i 9 -k RTR
h -t 1.739688000 -s 2 -d 5 -p cbr -e 1020 -c 2 -a 0 -i 9 -k RTR
d -t 1.749533127 -s 5 -d 5 -p cbr -e 1020 -c 2 -a 0 -i 9 -k RTR
+ -t 1.800000000 -s 0 -d -1 -p cbr -e 1000 -c 2 -a 0 -i 10 -k AGT 
- -t 1.800000000 -s 0 -d -1 -p cbr -e 1000 -c 2 -a 0 -i 10 -k AGT
h -t 1.800000000 -s 0 -d -1 -p cbr -e 1000 -c 2 -a 0 -i 10 -k AGT
+ -t 1.800000000 -s 0 -d 1 -p cbr -e 1020 -c 2 -a 0 -i 10 -k RTR 
- -t 1.800000000 -s 0 -d 1 -p cbr -e 1020 -c 2 -a 0 -i 10 -k RTR
h -t 1.800000000 -s 0 -d 1 -p cbr -e 1020 -c 2 -a 0 -i 10 -k RTR
+ -t 1.809802000 -s 1 -d 2 -p cbr -e 1020 -c 2 -a 0 -i 10 -k RTR 
- -t 1.809802000 -s 1 -d 2 -p cbr -e 1020 -c 2 -a 0 -i 10 -k RTR
h -t 1.809802000 -s 1 -d 2 -p cbr -e 1020 -c 2 -a 0 -i 10 -k RTR
+ -t 1.819588000 -s 2 -d 5 -p cbr -e 1020 -c 2 -a 0 -i 10 -k RTR 
- -t 1.819588000 -s 2 -d 5 -p cbr -e 1020 -c 2 -a 0 -i 10 -k RTR
h -t 1.819588000 -s 2 -d 5 -p cbr -e 1020 -c 2 -a 0 -i 10 -k RTR
d -t 1.829473127 -s 5 -d 5 -p cbr -e 1020 -c 2 -a 0 -i 10 -k RTR
+ -t 1.880000000 -s 0 -d -1 -p cbr -e 1000 -c 2 -a 0 -i 11 -k AGT 
- -t 1.880000000 -s 0 -d -1 -p cbr -e 1000 -c 2 -a 0 -i 11 -k AGT
h -t 1.880000000 -s 0 -d -1 -p cbr -e 1000 -c 2 -a 0 -i 11 -k AGT
+ -t 1.880000000 -s 0 -d 1 -p cbr -e 1020 -c 2 -a 0 -i 11 -k RTR 
- -t 1.880000000 -s 0 -d 1 -p cbr -e 1020 -c 2 -a 0 -i 11 -k RTR
h -t 1.880000000 -s 0 -d 1 -p cbr -e 1020 -c 2 -a 0 -i 11 -k RTR
+ -t 1.889762000 -s 1 -d 2 -p cbr -e 1020 -c 2 -a 0 -i 11 -k RTR 
- -t 1.889762000 -s 1 -d 2 -p cbr -e 1020 -c 2 -a 0 -i 11 -k RTR
h -t 1.889762000 -s 1 -d 2 -p cbr -e 1020 -c 2 -a 0 -i 11 -k RTR
+ -t 1.899748000 -s 2 -d 5 -p cbr -e 1020 -c 2 -a 0 -i 11 -k RTR 
- -t 1.899748000 -s 2 -d 5 -p cbr -e 1020 -c 2 -a 0 -i 11 -k RTR
h -t 1.899748000 -s 2 -d 5 -p cbr -e 1020 -c 2 -a 0 -i 11 -k RTR
d -t 1.909913127 -s 5 -d 5 -p cbr -e 1020 -c 2 -a 0 -i 11 -k RTR
+ -t 1.960000000 -s 0 -d -1 -p cbr -e 1000 -c 2 -a 0 -i 12 -k AGT 
- -t 1.960000000 -s 0 -d -1 -p cbr -e 1000 -c 2 -a 0 -i 12 -k AGT
h -t 1.960000000 -s 0 -d -1 -p cbr -e 1000 -c 2 -a 0 -i 12 -k AGT
+ -t 1.960000000 -s 0 -d 1 -p cbr -e 1020 -c 2 -a 0 -i 12 -k RTR 
- -t 1.960000000 -s 0 -d 1 -p cbr -e 1020 -c 2 -a 0 -i 12 -k RTR
h -t 1.960000000 -s 0 -d 1 -p cbr -e 1020 -c 2 -a 0 -i 12 -k RTR
+ -t 1.969422000 -s 1 -d 2 -p cbr -e 1020 -c 2 -a 0 -i 12 -k RTR 
- -t 1.969422000 -s 1 -d 2 -p cbr -e 1020 -c 2 -a 0 -i 12 -k RTR
h -t 1.969422000 -s 1 -d 2 -p cbr -e 1020 -c 2 -a 0 -i 12 -k RTR
+ -t 1.979348000 -s 2 -d 5 -p cbr -e 1020 -c 2 -a 0 -i 12 -k RTR 
- -t 1.979348000 -s 2 -d 5 -p cbr -e 1020 -c 2 -a 0 -i 12 -k RTR
h -t 1.979348000 -s 2 -d 5 -p cbr -e 1020 -c 2 -a 0 -i 12 -k RTR
d -t 1.989013127 -s 5 -d 5 -p cbr -e 1020 -c 2 -a 0 -i 12 -k RTR
+ -t 2.040000000 -s 0 -d -1 -p cbr -e 1000 -c 2 -a 0 -i 13 -k AGT 
- -t 2.040000000 -s 0 -d -1 -p cbr -e 1000 -c 2 -a 0 -i 13 -k AGT
h -t 2.040000000 -s 0 -d -1 -p cbr -e 1000 -c 2 -a 0 -i 13 -k AGT
+ -t 2.040000000 -s 0 -d 1 -p cbr -e 1020 -c 2 -a 0 -i 13 -k RTR 
- -t 2.040000000 -s 0 -d 1 -p cbr -e 1020 -c 2 -a 0 -i 13 -k RTR
h -t 2.040000000 -s 0 -d 1 -p cbr -e 1020 -c 2 -a 0 -i 13 -k RTR
+ -t 2.050002000 -s 1 -d 2 -p cbr -e 1020 -c 2 -a 0 -i 13 -k RTR 
- -t 2.050002000 -s 1 -d 2 -p cbr -e 1020 -c 2 -a 0 -i 13 -k RTR
h -t 2.050002000 -s 1 -d 2 -p cbr -e 1020 -c 2 -a 0 -i 13 -k RTR
+ -t 2.060088000 -s 2 -d 5 -p cbr -e 1020 -c 2 -a 0 -i 13 -k RTR 
- -t 2.060088000 -s 2 -d 5 -p cbr -e 1020 -c 2 -a 0 -i 13 -k RTR
h -t 2.060088000 -s 2 -d 5 -p cbr -e 1020 -c 2 -a 0 -i 13 -k RTR
d -t 2.069773127 -s 5 -d 5 -p cbr -e 1020 -c 2 -a 0 -i 13 -k RTR
+ -t 2.120000000 -s 0 -d -1 -p cbr -e 1000 -c 2 -a 0 -i 14 -k AGT 
- -t 2.120000000 -s 0 -d -1 -p cbr -e 1000 -c 2 -a 0 -i 14 -k AGT
h -t 2.120000000 -s 0 -d -1 -p cbr -e 1000 -c 2 -a 0 -i 14 -k AGT
+ -t 2.120000000 -s 0 -d 1 -p cbr -e 1020 -c 2 -a 0 -i 14 -k RTR 
- -t 2.120000000 -s 0 -d 1 -p cbr -e 1020 -c 2 -a 0 -i 14 -k RTR
h -t 2.120000000 -s 0 -d 1 -p cbr -e 1020 -c 2 -a 0 -i 14 -k RTR
+ -t 2.129422000 -s 1 -d 2 -p cbr -e 1020 -c 2 -a 0 -i 14 -k RTR 
- -t 2.129422000 -s 1 -d 2 -p cbr -e 1020 -c 2 -a 0 -i 14 -k RTR
h -t 2.129422000 -s 1 -d 2 -p cbr -e 1020 -c 2 -a 0 -i 14 -k RTR
+ -t 2.139108000 -s 2 -d 5 -p cbr -e 1020 -c 2 -a 0 -i 14 -k RTR 
- -t 2.139108000 -s 2 -d 5 -p cbr -e 1020 -c 2 -a 0 -i 14 -k RTR
h -t 2.139108000 -s 2 -d 5 -p cbr -e 1020 -c 2 -a 0 -i 14 -k RTR
d -t 2.149213127 -s 5 -d 5 -p cbr -e 1020 -c 2 -a 0 -i 14 -k RTR
+ -t 2.200000000 -s 0 -d -1 -p cbr -e 1000 -c 2 -a 0 -i 15 -k AGT 
- -t 2.200000000 -s 0 -d -1 -p cbr -e 1000 -c 2 -a 0 -i 15 -k AGT
h -t 2.200000000 -s 0 -d -1 -p cbr -e 1000 -c 2 -a 0 -i 15 -k AGT
+ -t 2.200000000 -s 0 -d 1 -p cbr -e 1020 -c 2 -a 0 -i 15 -k RTR 
- -t 2.200000000 -s 0 -d 1 -p cbr -e 1020 -c 2 -a 0 -i 15 -k RTR
h -t 2.200000000 -s 0 -d 1 -p cbr -e 1020 -c 2 -a 0 -i 15 -k RTR
+ -t 2.209722000 -s 1 -d 2 -p cbr -e 1020 -c 2 -a 0 -i 15 -k RTR 
- -t 2.209722000 -s 1 -d 2 -p cbr -e 1020 -c 2 -a 0 -i 15 -k RTR
h -t 2.209722000 -s 1 -d 2 -p cbr -e 1020 -c 2 -a 0 -i 15 -k RTR
+ -t 2.219568000 -s 2 -d 5 -p cbr -e 1020 -c 2 -a 0 -i 15 -k RTR 
- -t 2.219568000 -s 2 -d 5 -p cbr -e 1020 -c 2 -a 0 -i 15 -k RTR
h -t 2.219568000 -s 2 -d 5 -p cbr -e 1020 -c 2 -a 0 -i 15 -k RTR
d -t 2.229413127 -s 5 -d 5 -p cbr -e 1020 -c 2 -a 0 -i 15 -k RTR
+ -t 2.280000000 -s 0 -d -1 -p cbr -e 1000 -c 2 -a 0 -i 16 -k AGT 
- -t 2.280000000 -s 0 -d -1 -p cbr -e 1000 -c 2 -a 0 -i 16 -k AGT
h -t 2.280000000 -s 0 -d -1 -p cbr -e 1000 -c 2 -a 0 -i 16 -k AGT
+ -t 2.280000000 -s 0 -d 1 -p cbr -e 1020 -c 2 -a 0 -i 16 -k RTR 
- -t 2.280000000 -s 0 -d 1 -p cbr -e 1020 -c 2 -a 0 -i 16 -k RTR
h -t 2.280000000 -s 0 -d 1 -p cbr -e 1020 -c 2 -a 0 -i 16 -k RTR
+ -t 2.289402000 -s 1 -d 2 -p cbr -e 1020 -c 2 -a 0 -i 16 -k RTR 
- -t 2.289402000 -s 1 -d 2 -p cbr -e 1020 -c 2 -a 0 -i 16 -k RTR
h -t 2.289402000 -s 1 -d 2 -p cbr -e 1020 -c 2 -a 0 -i 16 -k RTR
+ -t 2.299168000 -s 2 -d 5 -p cbr -e 1020 -c 2 -a 0 -i 16 -k RTR 
- -t 2.299168000 -s 2 -d 5 -p cbr -e 1020 -c 2 -a 0 -i 16 -k RTR
h -t 2.299168000 -s 2 -d 5 -p cbr -e 1020 -c 2 -a 0 -i 16 -k RTR
d -t 2.309373127 -s 5 -d 5 -p cbr -e 1020 -c 2 -a 0 -i 16 -k RTR
+ -t 2.360000000 -s 0 -d -1 -p cbr -e 1000 -c 2 -a 0 -i 17 -k AGT 
- -t 2.360000000 -s 0 -d -1 -p cbr -e 1000 -c 2 -a 0 -i 17 -k AGT
h -t 2.360000000 -s 0 -d -1 -p cbr -e 1000 -c 2 -a 0 -i 17 -k AGT
+ -t 2.360000000 -s 0 -d 1 -p cbr -e 1020 -c 2 -a 0 -i 17 -k RTR 
- -t 2.360000000 -s 0 -d 1 -p cbr -e 1020 -c 2 -a 0 -i 17 -k RTR
h -t 2.360000000 -s 0 -d 1 -p cbr -e 1020 -c 2 -a 0 -i 17 -k RTR
+ -t 2.369982000 -s 1 -d 2 -p cbr -e 1020 -c 2 -a 0 -i 17 -k RTR 
- -t 2.369982000 -s 1 -d 2 -p cbr -e 1020 -c 2 -a 0 -i 17 -k RTR
h -t 2.369982000 -s 1 -d 2 -p cbr -e 1020 -c 2 -a 0 -i 17 -k RTR
+ -t 2.379868000 -s 2 -d 5 -p cbr -e 1020 -c 2 -a 0 -i 17 -k RTR 
- -t 2.379868000 -s 2 -d 5 -p cbr -e 1020 -c 2 -a 0 -i 17 -k RTR
h -t 2.379868000 -s 2 -d 5 -p cbr -e 1020 -c 2 -a 0 -i 17 -k RTR
d -t 2.389673127 -s 5 -d 5 -p cbr -e 1020 -c 2 -a 0 -i 17 -k RTR
+ -t 2.440000000 -s 0 -d -1 -p cbr -e 1000 -c 2 -a 0 -i 18 -k AGT 
- -t 2.440000000 -s 0 -d -1 -p cbr -e 1000 -c 2 -a 0 -i 18 -k AGT
h -t 2.440000000 -s 0 -d -1 -p cbr -e 1000 -c 2 -a 0 -i 18 -k AGT
+ -t 2.440000000 -s 0 -d 1 -p cbr -e 1020 -c 2 -a 0 -i 18 -k RTR 
- -t 2.440000000 -s 0 -d 1 -p cbr -e 1020 -c 2 -a 0 -i 18 -k RTR
h -t 2.440000000 -s 0 -d 1 -p cbr -e 1020 -c 2 -a 0 -i 18 -k RTR
+ -t 2.449502000 -s 1 -d 2 -p cbr -e 1020 -c 2 -a 0 -i 18 -k RTR 
- -t 2.449502000 -s 1 -d 2 -p cbr -e 1020 -c 2 -a 0 -i 18 -k RTR
h -t 2.449502000 -s 1 -d 2 -p cbr -e 1020 -c 2 -a 0 -i 18 -k RTR
+ -t 2.459348000 -s 2 -d 5 -p cbr -e 1020 -c 2 -a 0 -i 18 -k RTR 
- -t 2.459348000 -s 2 -d 5 -p cbr -e 1020 -c 2 -a 0 -i 18 -k RTR
h -t 2.459348000 -s 2 -d 5 -p cbr -e 1020 -c 2 -a 0 -i 18 -k RTR
d -t 2.469393127 -s 5 -d 5 -p cbr -e 1020 -c 2 -a 0 -i 18 -k RTR
+ -t 2.520000000 -s 0 -d -1 -p cbr -e 1000 -c 2 -a 0 -i 19 -k AGT 
- -t 2.520000000 -s 0 -d -1 -p cbr -e 1000 -c 2 -a 0 -i 19 -k AGT
h -t 2.520000000 -s 0 -d -1 -p cbr -e 1000 -c 2 -a 0 -i 19 -k AGT
+ -t 2.520000000 -s 0 -d 1 -p cbr -e 1020 -c 2 -a 0 -i 19 -k RTR 
- -t 2.520000000 -s 0 -d 1 -p cbr -e 1020 -c 2 -a 0 -i 19 -k RTR
h -t 2.520000000 -s 0 -d 1 -p cbr -e 1020 -c 2 -a 0 -i 19 -k RTR
+ -t 2.529402000 -s 1 -d 2 -p cbr -e 1020 -c 2 -a 0 -i 19 -k RTR 
- -t 2.529402000 -s 1 -d 2 -p cbr -e 1020 -c 2 -a 0 -i 19 -k RTR
h -t 2.529402000 -s 1 -d 2 -p cbr -e 1020 -c 2 -a 0 -i 19 -k RTR
+ -t 2.539188000 -s 2 -d 5 -p cbr -e 1020 -c 2 -a 0 -i 19 -k RTR 
- -t 2.539188000 -s 2 -d 5 -p cbr -e 1020 -c 2 -a 0 -i 19 -k RTR
h -t 2.539188000 -s 2 -d 5 -p cbr -e 1020 -c 2 -a 0 -i 19 -k RTR
d -t 2.549013127 -s 5 -d 5 -p cbr -e 1020 -c 2 -a 0 -i 19 -k RTR
+ -t 2.600000000 -s 0 -d -1 -p cbr -e 1000 -c 2 -a 0 -i 20 -k AGT 
- -t 2.600000000 -s 0 -d -1 -p cbr -e 1000 -c 2 -a 0 -i 20 -k AGT
h -t 2.600000000 -s 0 -d -1 -p cbr -e 1000 -c 2 -a 0 -i 20 -k AGT
+ -t 2.600000000 -s 0 -d 1 -p cbr -e 1020 -c 2 -a 0 -i 20 -k RTR 
- -t 2.600000000 -s 0 -d 1 -p cbr -e 1020 -c 2 -a 0 -i 20 -k RTR
h -t 2.600000000 -s 0 -d 1 -p cbr -e 1020 -c 2 -a 0 -i 20 -k RTR
+ -t 2.609542000 -s 1 -d 2 -p cbr -e 1020 -c 2 -a 0 -i 20 -k RTR 
- -t 2.609542000 -s 1 -d 2 -p cbr -e 1020 -c 2 -a 0 -i 20 -k RTR
h -t 2.609542000 -s 1 -d 2 -p cbr -e 1020 -c 2 -a 0 -i 20 -k RTR
+ -t 2.619748000 -s 2 -d 5 -p cbr -e 1020 -c 2 -a 0 -i 20 -k RTR 
- -t 2.619748000 -s 2 -d 5 -p cbr -e 1020 -c 2 -a 0 -i 20 -k RTR
h -t 2.619748000 -s 2 -d 5 -p cbr -e 1020 -c 2 -a 0 -i 20 -k RTR
d -t 2.629453127 -s 5 -d 5 -p cbr -e 1020 -c 2 -a 0 -i 20 -k RTR
+ -t 2.680000000 -s 0 -d -1 -p cbr -e 1000 -c 2 -a 0 -i 21 -k AGT 
- -t 2.680000000 -s 0 -d -1 -p cbr -e 1000 -c 2 -a 0 -i 21 -k AGT
h -t 2.680000000 -s 0 -d -1 -p cbr -e 1000 -c 2 -a 0 -i 21 -k AGT
+ -t 2.680000000 -s 0 -d 1 -p cbr -e 1020 -c 2 -a 0 -i 21 -k RTR 
- -t 2.680000000 -s 0 -d 1 -p cbr -e 1020 -c 2 -a 0 -i 21 -k RTR
h -t 2.680000000 -s 0 -d 1 -p cbr -e 1020 -c 2 -a 0 -i 21 -k RTR
+ -t 2.689402000 -s 1 -d 2 -p cbr -e 1020 -c 2 -a 0 -i 21 -k RTR 
- -t 2.689402000 -s 1 -d 2 -p cbr -e 1020 -c 2 -a 0 -i 21 -k RTR
h -t 2.689402000 -s 1 -d 2 -p cbr -e 1020 -c 2 -a 0 -i 21 -k RTR
+ -t 2.699148000 -s 2 -d 5 -p cbr -e 1020 -c 2 -a 0 -i 21 -k RTR 
- -t 2.699148000 -s 2 -d 5 -p cbr -e 1020 -c 2 -a 0 -i 21 -k RTR
h -t 2.699148000 -s 2 -d 5 -p cbr -e 1020 -c 2 -a 0 -i 21 -k RTR
d -t 2.709113127 -s 5 -d 5 -p cbr -e 1020 -c 2 -a 0 -i 21 -k RTR
+ -t 2.760000000 -s 0 -d -1 -p cbr -e 1000 -c 2 -a 0 -i 22 -k AGT 
- -t 2.760000000 -s 0 -d -1 -p cbr -e 1000 -c 2 -a 0 -i 22 -k AGT
h -t 2.760000000 -s 0 -d -1 -p cbr -e 1000 -c 2 -a 0 -i 22 -k AGT
+ -t 2.760000000 -s 0 -d 1 -p cbr -e 1020 -c 2 -a 0 -i 22 -k RTR 
- -t 2.760000000 -s 0 -d 1 -p cbr -e 1020 -c 2 -a 0 -i 22 -k RTR
h -t 2.760000000 -s 0 -d 1 -p cbr -e 1020 -c 2 -a 0 -i 22 -k RTR
+ -t 2.769882000 -s 1 -d 2 -p cbr -e 1020 -c 2 -a 0 -i 22 -k RTR 
- -t 2.769882000 -s 1 -d 2 -p cbr -e 1020 -c 2 -a 0 -i 22 -k RTR
h -t 2.769882000 -s 1 -d 2 -p cbr -e 1020 -c 2 -a 0 -i 22 -k RTR
+ -t 2.779588000 -s 2 -d 5 -p cbr -e 1020 -c 2 -a 0 -i 22 -k RTR 
- -t 2.779588000 -s 2 -d 5 -p cbr -e 1020 -c 2 -a 0 -i 22 -k RTR
h -t 2.779588000 -s 2 -d 5 -p cbr -e 1020 -c 2 -a 0 -i 22 -k RTR
d -t 2.789753127 -s 5 -d 5 -p cbr -e 1020 -c 2 -a 0 -i 22 -k RTR
+ -t 2.840000000 -s 0 -d -1 -p cbr -e 1000 -c 2 -a 0 -i 23 -k AGT 
- -t 2.840000000 -s 0 -d -1 -p cbr -e 1000 -c 2 -a 0 -i 23 -k AGT
h -t 2.840000000 -s 0 -d -1 -p cbr -e 1000 -c 2 -a 0 -i 23 -k AGT
+ -t 2.840000000 -s 0 -d 1 -p cbr -e 1020 -c 2 -a 0 -i 23 -k RTR 
- -t 2.840000000 -s 0 -d 1 -p cbr -e 1020 -c 2 -a 0 -i 23 -k RTR
h -t 2.840000000 -s 0 -d 1 -p cbr -e 1020 -c 2 -a 0 -i 23 -k RTR
+ -t 2.849402000 -s 1 -d 2 -p cbr -e 1020 -c 2 -a 0 -i 23 -k RTR 
- -t 2.849402000 -s 1 -d 2 -p cbr -e 1020 -c 2 -a 0 -i 23 -k RTR
h -t 2.849402000 -s 1 -d 2 -p cbr -e 1020 -c 2 -a 0 -i 23 -k RTR
+ -t 2.859628000 -s 2 -d 5 -p cbr -e 1020 -c 2 -a 0 -i 23 -k RTR 
- -t 2.859628000 -s 2 -d 5 -p cbr -e 1020 -c 2 -a 0 -i 23 -k RTR
h -t 2.859628000 -s 2 -d 5 -p cbr -e 1020 -c 2 -a 0 -i 23 -k RTR
d -t 2.869673127 -s 5 -d 5 -p cbr -e 1020 -c 2 -a 0 -i 23 -k RTR
+ -t 2.920000000 -s 0 -d -1 -p cbr -e 1000 -c 2 -a 0 -i 24 -k AGT 
- -t 2.920000000 -s 0 -d -1 -p cbr -e 1000 -c 2 -a 0 -i 24 -k AGT
h -t 2.920000000 -s 0 -d -1 -p cbr -e 1000 -c 2 -a 0 -i 24 -k AGT
+ -t 2.920000000 -s 0 -d 1 -p cbr -e 1020 -c 2 -a 0 -i 24 -k RTR 
- -t 2.920000000 -s 0 -d 1 -p cbr -e 1020 -c 2 -a 0 -i 24 -k RTR
h -t 2.920000000 -s 0 -d 1 -p cbr -e 1020 -c 2 -a 0 -i 24 -k RTR
+ -t 2.929802000 -s 1 -d 2 -p cbr -e 1020 -c 2 -a 0 -i 24 -k RTR 
- -t 2.929802000 -s 1 -d 2 -p cbr -e 1020 -c 2 -a 0 -i 24 -k RTR
h -t 2.929802000 -s 1 -d 2 -p cbr -e 1020 -c 2 -a 0 -i 24 -k RTR
+ -t 2.939588000 -s 2 -d 5 -p cbr -e 1020 -c 2 -a 0 -i 24 -k RTR 
- -t 2.939588000 -s 2 -d 5 -p cbr -e 1020 -c 2 -a 0 -i 24 -k RTR
h -t 2.939588000 -s 2 -d 5 -p cbr -e 1020 -c 2 -a 0 -i 24 -k RTR
d -t 2.949273127 -s 5 -d 5 -p cbr -e 1020 -c 2 -a 0 -i 24 -k RTR
+ -t 3.000000000 -s 0 -d -1 -p cbr -e 1000 -c 2 -a 0 -i 25 -k AGT 
- -t 3.000000000 -s 0 -d -1 -p cbr -e 1000 -c 2 -a 0 -i 25 -k AGT
h -t 3.000000000 -s 0 -d -1 -p cbr -e 1000 -c 2 -a 0 -i 25 -k AGT
+ -t 3.000000000 -s 0 -d 1 -p cbr -e 1020 -c 2 -a 0 -i 25 -k RTR 
- -t 3.000000000 -s 0 -d 1 -p cbr -e 1020 -c 2 -a 0 -i 25 -k RTR
h -t 3.000000000 -s 0 -d 1 -p cbr -e 1020 -c 2 -a 0 -i 25 -k RTR
+ -t 3.009962000 -s 1 -d 2 -p cbr -e 1020 -c 2 -a 0 -i 25 -k RTR 
- -t 3.009962000 -s 1 -d 2 -p cbr -e 1020 -c 2 -a 0 -i 25 -k RTR
h -t 3.009962000 -s 1 -d 2 -p cbr -e 1020 -c 2 -a 0 -i 25 -k RTR
+ -t 3.020088000 -s 2 -d 5 -p cbr -e 1020 -c 2 -a 0 -i 25 -k RTR 
- -t 3.020088000 -s 2 -d 5 -p cbr -e 1020 -c 2 -a 0 -i 25 -k RTR
h -t 3.020088000 -s 2 -d 5 -p cbr -e 1020 -c 2 -a 0 -i 25 -k RTR
d -t 3.029913127 -s 5 -d 5 -p cbr -e 1020 -c 2 -a 0 -i 25 -k RTR
+ -t 3.080000000 -s 0 -d -1 -p cbr -e 1000 -c 2 -a 0 -i 26 -k AGT 
- -t 3.080000000 -s 0 -d -1 -p cbr -e 1000 -c 2 -a 0 -i 26 -k AGT
h -t 3.080000000 -s 0 -d -1 -p cbr -e 1000 -c 2 -a 0 -i 26 -k AGT
+ -t 3.080000000 -s 0 -d 1 -p cbr -e 1020 -c 2 -a 0 -i 26 -k RTR 
- -t 3.080000000 -s 0 -d 1 -p cbr -e 1020 -c 2 -a 0 -i 26 -k RTR
h -t 3.080000000 -s 0 -d 1 -p cbr -e 1020 -c 2 -a 0 -i 26 -k RTR
+ -t 3.089622000 -s 1 -d 2 -p cbr -e 1020 -c 2 -a 0 -i 26 -k RTR 
- -t 3.089622000 -s 1 -d 2 -p cbr -e 1020 -c 2 -a 0 -i 26 -k RTR
h -t 3.089622000 -s 1 -d 2 -p cbr -e 1020 -c 2 -a 0 -i 26 -k RTR
+ -t 3.099808000 -s 2 -d 5 -p cbr -e 1020 -c 2 -a 0 -i 26 -k RTR 
- -t 3.099808000 -s 2 -d 5 -p cbr -e 1020 -c 2 -a 0 -i 26 -k RTR
h -t 3.099808000 -s 2 -d 5 -p cbr -e 1020 -c 2 -a 0 -i 26 -k RTR
d -t 3.109573127 -s 5 -d 5 -p cbr -e 1020 -c 2 -a 0 -i 26 -k RTR
+ -t 3.160000000 -s 0 -d -1 -p cbr -e 1000 -c 2 -a 0 -i 27 -k AGT 
- -t 3.160000000 -s 0 -d -1 -p cbr -e 1000 -c 2 -a 0 -i 27 -k AGT
h -t 3.160000000 -s 0 -d -1 -p cbr -e 1000 -c 2 -a 0 -i 27 -k AGT
+ -t 3.160000000 -s 0 -d 1 -p cbr -e 1020 -c 2 -a 0 -i 27 -k RTR 
- -t 3.160000000 -s 0 -d 1 -p cbr -e 1020 -c 2 -a 0 -i 27 -k RTR
h -t 3.160000000 -s 0 -d 1 -p cbr -e 1020 -c 2 -a 0 -i 27 -k RTR
+ -t 3.169922000 -s 1 -d 2 -p cbr -e 1020 -c 2 -a 0 -i 27 -k RTR 
- -t 3.169922000 -s 1 -d 2 -p cbr -e 1020 -c 2 -a 0 -i 27 -k RTR
h -t 3.169922000 -s 1 -d 2 -p cbr -e 1020 -c 2 -a 0 -i 27 -k RTR
+ -t 3.179908000 -s 2 -d 5 -p cbr -e 1020 -c 2 -a 0 -i 27 -k RTR 
- -t 3.179908000 -s 2 -d 5 -p cbr -e 1020 -c 2 -a 0 -i 27 -k RTR
h -t 3.179908000 -s 2 -d 5 -p cbr -e 1020 -c 2 -a 0 -i 27 -k RTR
d -t 3.189613127 -s 5 -d 5 -p cbr -e 1020 -c 2 -a 0 -i 27 -k RTR
+ -t 3.240000000 -s 0 -d -1 -p cbr -e 1000 -c 2 -a 0 -i 28 -k AGT 
- -t 3.240000000 -s 0 -d -1 -p cbr -e 1000 -c 2 -a 0 -i 28 -k AGT
h -t 3.240000000 -s 0 -d -1 -p cbr -e 1000 -c 2 -a 0 -i 28 -k AGT
+ -t 3.240000000 -s 0 -d 1 -p cbr -e 1020 -c 2 -a 0 -i 28 -k RTR 
- -t 3.240000000 -s 0 -d 1 -p cbr -e 1020 -c 2 -a 0 -i 28 -k RTR
h -t 3.240000000 -s 0 -d 1 -p cbr -e 1020 -c 2 -a 0 -i 28 -k RTR
+ -t 3.249762000 -s 1 -d 2 -p cbr -e 1020 -c 2 -a 0 -i 28 -k RTR 
- -t 3.249762000 -s 1 -d 2 -p cbr -e 1020 -c 2 -a 0 -i 28 -k RTR
h -t 3.249762000 -s 1 -d 2 -p cbr -e 1020 -c 2 -a 0 -i 28 -k RTR
+ -t 3.259588000 -s 2 -d 5 -p cbr -e 1020 -c 2 -a 0 -i 28 -k RTR 
- -t 3.259588000 -s 2 -d 5 -p cbr -e 1020 -c 2 -a 0 -i 28 -k RTR
h -t 3.259588000 -s 2 -d 5 -p cbr -e 1020 -c 2 -a 0 -i 28 -k RTR
d -t 3.269593127 -s 5 -d 5 -p cbr -e 1020 -c 2 -a 0 -i 28 -k RTR
+ -t 3.320000000 -s 0 -d -1 -p cbr -e 1000 -c 2 -a 0 -i 29 -k AGT 
- -t 3.320000000 -s 0 -d -1 -p cbr -e 1000 -c 2 -a 0 -i 29 -k AGT
h -t 3.320000000 -s 0 -d -1 -p cbr -e 1000 -c 2 -a 0 -i 29 -k AGT
+ -t 3.320000000 -s 0 -d 1 -p cbr -e 1020 -c 2 -a 0 -i 29 -k RTR 
- -t 3.320000000 -s 0 -d 1 -p cbr -e 1020 -c 2 -a 0 -i 29 -k RTR
h -t 3.320000000 -s 0 -d 1 -p cbr -e 1020 -c 2 -a 0 -i 29 -k RTR
+ -t 3.329882000 -s 1 -d 2 -p cbr -e 1020 -c 2 -a 0 -i 29 -k RTR 
- -t 3.329882000 -s 1 -d 2 -p cbr -e 1020 -c 2 -a 0 -i 29 -k RTR
h -t 3.329882000 -s 1 -d 2 -p cbr -e 1020 -c 2 -a 0 -i 29 -k RTR
+ -t 3.340008000 -s 2 -d 5 -p cbr -e 1020 -c 2 -a 0 -i 29 -k RTR 
- -t 3.340008000 -s 2 -d 5 -p cbr -e 1020 -c 2 -a 0 -i 29 -k RTR
h -t 3.340008000 -s 2 -d 5 -p cbr -e 1020 -c 2 -a 0 -i 29 -k RTR
d -t 3.349673127 -s 5 -d 5 -p cbr -e 1020 -c 2 -a 0 -i 29 -k RTR
+ -t 3.400000000 -s 0 -d -1 -p cbr -e 1000 -c 2 -a 0 -i 30 -k AGT 
- -t 3.400000000 -s 0 -d -1 -p cbr -e 1000 -c 2 -a 0 -i 30 -k AGT
h -t 3.400000000 -s 0 -d -1 -p cbr -e 1000 -c 2 -a 0 -i 30 -k AGT
+ -t 3.400000000 -s 0 -d 1 -p cbr -e 1020 -c 2 -a 0 -i 30 -k RTR 
- -t 3.400000000 -s 0 -d 1 -p cbr -e 1020 -c 2 -a 0 -i 30 -k RTR
h -t 3.400000000 -s 0 -d 1 -p cbr -e 1020 -c 2 -a 0 -i 30 -k RTR
+ -t 3.409502000 -s 1 -d 2 -p cbr -e 1020 -c 2 -a 0 -i 30 -k RTR 
- -t 3.409502000 -s 1 -d 2 -p cbr -e 1020 -c 2 -a 0 -i 30 -k RTR
h -t 3.409502000 -s 1 -d 2 -p cbr -e 1020 -c 2 -a 0 -i 30 -k RTR
+ -t 3.419568000 -s 2 -d 5 -p cbr -e 1020 -c 2 -a 0 -i 30 -k RTR 
- -t 3.419568000 -s 2 -d 5 -p cbr -e 1020 -c 2 -a 0 -i 30 -k RTR
h -t 3.419568000 -s 2 -d 5 -p cbr -e 1020 -c 2 -a 0 -i 30 -k RTR
d -t 3.429253127 -s 5 -d 5 -p cbr -e 1020 -c 2 -a 0 -i 30 -k RTR
+ -t 3.480000000 -s 0 -d -1 -p cbr -e 1000 -c 2 -a 0 -i 31 -k AGT 
- -t 3.480000000 -s 0 -d -1 -p cbr -e 1000 -c 2 -a 0 -i 31 -k AGT
h -t 3.480000000 -s 0 -d -1 -p cbr -e 1000 -c 2 -a 0 -i 31 -k AGT
+ -t 3.480000000 -s 0 -d 1 -p cbr -e 1020 -c 2 -a 0 -i 31 -k RTR 