n -t * -s 0  -x 99 -y 299 -Z 0 -z 20  -v circle -c black
n -t * -s 1  -x 299 -y 297 -Z 0 -z 20  -v circle -c black
n -t * -s 2  -x 499 -y 298 -Z 0 -z 20  -v circle -c black
n -t * -s 3  -x 700 -y 299 -Z 0 -z 20  -v circle -c black
n -t * -s 4  -x 199 -y 350 -Z 0 -z 20  -v circle -c black
n -t * -s 5  -x 599 -y 350 -Z 0 -z 20  -v circle -c black
n -t * -s 6  -x 600 -y 200 -Z 0 -z 20  -v circle -c black
V -t * -v 1.0a5 -a 0
W -t * -x 800 -y 541
A -t * -n 1 -p 0 -o 0x7fffffff -c 30 -a 1
A -t * -h 1 -m 1073741823 -s 0
n -t 0 -s 5 -S COLOR -c red -o red -i red -I red
n -t 0 -s 5 -S DLABEL -l "Attacker" -L ""
n -t 0 -s 0 -S COLOR -c green -o green -i green -I green
n -t 0 -s 0 -S DLABEL -l "Source" -L ""
n -t 0 -s 3 -S COLOR -c blue -o blue -i blue -I blue
n -t 0 -s 3 -S DLABEL -l "Destination" -L ""
+ -t 0.000000000 -s 0 -d -1 -p AODV -e 44 -c 2 -a 0 -i 0 -k RTR 
- -t 0.000000000 -s 0 -d -1 -p AODV -e 44 -c 2 -a 0 -i 0 -k RTR
h -t 0.000000000 -s 0 -d -1 -p AODV -e 44 -c 2 -a 0 -i 0 -k RTR
+ -t 0.000000000 -s 1 -d -1 -p AODV -e 44 -c 2 -a 0 -i 0 -k RTR 
- -t 0.000000000 -s 1 -d -1 -p AODV -e 44 -c 2 -a 0 -i 0 -k RTR
h -t 0.000000000 -s 1 -d -1 -p AODV -e 44 -c 2 -a 0 -i 0 -k RTR
+ -t 0.000000000 -s 2 -d -1 -p AODV -e 44 -c 2 -a 0 -i 0 -k RTR 
- -t 0.000000000 -s 2 -d -1 -p AODV -e 44 -c 2 -a 0 -i 0 -k RTR
h -t 0.000000000 -s 2 -d -1 -p AODV -e 44 -c 2 -a 0 -i 0 -k RTR
+ -t 0.000000000 -s 3 -d -1 -p AODV -e 44 -c 2 -a 0 -i 0 -k RTR 
- -t 0.000000000 -s 3 -d -1 -p AODV -e 44 -c 2 -a 0 -i 0 -k RTR
h -t 0.000000000 -s 3 -d -1 -p AODV -e 44 -c 2 -a 0 -i 0 -k RTR
+ -t 0.000000000 -s 4 -d -1 -p AODV -e 44 -c 2 -a 0 -i 0 -k RTR 
- -t 0.000000000 -s 4 -d -1 -p AODV -e 44 -c 2 -a 0 -i 0 -k RTR
h -t 0.000000000 -s 4 -d -1 -p AODV -e 44 -c 2 -a 0 -i 0 -k RTR
+ -t 0.000000000 -s 5 -d -1 -p AODV -e 44 -c 2 -a 0 -i 0 -k RTR 
- -t 0.000000000 -s 5 -d -1 -p AODV -e 44 -c 2 -a 0 -i 0 -k RTR
h -t 0.000000000 -s 5 -d -1 -p AODV -e 44 -c 2 -a 0 -i 0 -k RTR
+ -t 0.000000000 -s 6 -d -1 -p AODV -e 44 -c 2 -a 0 -i 0 -k RTR 
- -t 0.000000000 -s 6 -d -1 -p AODV -e 44 -c 2 -a 0 -i 0 -k RTR
h -t 0.000000000 -s 6 -d -1 -p AODV -e 44 -c 2 -a 0 -i 0 -k RTR
r -t 0.000956376 -s 2 -d -1 -p AODV -e 44 -c 2 -a 0 -i 0 -k RTR
r -t 0.000956377 -s 3 -d -1 -p AODV -e 44 -c 2 -a 0 -i 0 -k RTR
r -t 0.000956500 -s 6 -d -1 -p AODV -e 44 -c 2 -a 0 -i 0 -k RTR
r -t 0.002042754 -s 5 -d -1 -p AODV -e 44 -c 2 -a 0 -i 0 -k RTR
r -t 0.002042846 -s 6 -d -1 -p AODV -e 44 -c 2 -a 0 -i 0 -k RTR
r -t 0.002043047 -s 2 -d -1 -p AODV -e 44 -c 2 -a 0 -i 0 -k RTR
r -t 0.003679384 -s 5 -d -1 -p AODV -e 44 -c 2 -a 0 -i 0 -k RTR
r -t 0.003679478 -s 6 -d -1 -p AODV -e 44 -c 2 -a 0 -i 0 -k RTR
r -t 0.003679675 -s 1 -d -1 -p AODV -e 44 -c 2 -a 0 -i 0 -k RTR
r -t 0.003679679 -s 3 -d -1 -p AODV -e 44 -c 2 -a 0 -i 0 -k RTR
r -t 0.004646053 -s 4 -d -1 -p AODV -e 44 -c 2 -a 0 -i 0 -k RTR
r -t 0.004646342 -s 2 -d -1 -p AODV -e 44 -c 2 -a 0 -i 0 -k RTR
r -t 0.004646342 -s 0 -d -1 -p AODV -e 44 -c 2 -a 0 -i 0 -k RTR
r -t 0.005612427 -s 0 -d -1 -p AODV -e 44 -c 2 -a 0 -i 0 -k RTR
r -t 0.005612430 -s 1 -d -1 -p AODV -e 44 -c 2 -a 0 -i 0 -k RTR
r -t 0.006923949 -s 3 -d -1 -p AODV -e 44 -c 2 -a 0 -i 0 -k RTR
r -t 0.006923949 -s 2 -d -1 -p AODV -e 44 -c 2 -a 0 -i 0 -k RTR
r -t 0.006923980 -s 5 -d -1 -p AODV -e 44 -c 2 -a 0 -i 0 -k RTR
+ -t 0.750169789 -s 0 -d -1 -p AODV -e 44 -c 2 -a 0 -i 0 -k RTR 
- -t 0.750169789 -s 0 -d -1 -p AODV -e 44 -c 2 -a 0 -i 0 -k RTR
h -t 0.750169789 -s 0 -d -1 -p AODV -e 44 -c 2 -a 0 -i 0 -k RTR
r -t 0.751306163 -s 4 -d -1 -p AODV -e 44 -c 2 -a 0 -i 0 -k RTR
r -t 0.751306455 -s 1 -d -1 -p AODV -e 44 -c 2 -a 0 -i 0 -k RTR
+ -t 0.757102330 -s 2 -d -1 -p AODV -e 44 -c 2 -a 0 -i 0 -k RTR 
- -t 0.757102330 -s 2 -d -1 -p AODV -e 44 -c 2 -a 0 -i 0 -k RTR
h -t 0.757102330 -s 2 -d -1 -p AODV -e 44 -c 2 -a 0 -i 0 -k RTR
r -t 0.758458706 -s 5 -d -1 -p AODV -e 44 -c 2 -a 0 -i 0 -k RTR
r -t 0.758458799 -s 6 -d -1 -p AODV -e 44 -c 2 -a 0 -i 0 -k RTR
r -t 0.758458997 -s 1 -d -1 -p AODV -e 44 -c 2 -a 0 -i 0 -k RTR
r -t 0.758459000 -s 3 -d -1 -p AODV -e 44 -c 2 -a 0 -i 0 -k RTR
+ -t 0.794061336 -s 3 -d -1 -p AODV -e 44 -c 2 -a 0 -i 0 -k RTR 
- -t 0.794061336 -s 3 -d -1 -p AODV -e 44 -c 2 -a 0 -i 0 -k RTR
h -t 0.794061336 -s 3 -d -1 -p AODV -e 44 -c 2 -a 0 -i 0 -k RTR
r -t 0.795377713 -s 5 -d -1 -p AODV -e 44 -c 2 -a 0 -i 0 -k RTR
r -t 0.795377805 -s 6 -d -1 -p AODV -e 44 -c 2 -a 0 -i 0 -k RTR
r -t 0.795378006 -s 2 -d -1 -p AODV -e 44 -c 2 -a 0 -i 0 -k RTR
+ -t 0.906480886 -s 6 -d -1 -p AODV -e 44 -c 2 -a 0 -i 0 -k RTR 
- -t 0.906480886 -s 6 -d -1 -p AODV -e 44 -c 2 -a 0 -i 0 -k RTR
h -t 0.906480886 -s 6 -d -1 -p AODV -e 44 -c 2 -a 0 -i 0 -k RTR
r -t 0.907437355 -s 3 -d -1 -p AODV -e 44 -c 2 -a 0 -i 0 -k RTR
r -t 0.907437355 -s 2 -d -1 -p AODV -e 44 -c 2 -a 0 -i 0 -k RTR
r -t 0.907437386 -s 5 -d -1 -p AODV -e 44 -c 2 -a 0 -i 0 -k RTR
+ -t 0.970586691 -s 4 -d -1 -p AODV -e 44 -c 2 -a 0 -i 0 -k RTR 
- -t 0.970586691 -s 4 -d -1 -p AODV -e 44 -c 2 -a 0 -i 0 -k RTR
h -t 0.970586691 -s 4 -d -1 -p AODV -e 44 -c 2 -a 0 -i 0 -k RTR
r -t 0.971643065 -s 0 -d -1 -p AODV -e 44 -c 2 -a 0 -i 0 -k RTR
r -t 0.971643068 -s 1 -d -1 -p AODV -e 44 -c 2 -a 0 -i 0 -k RTR
+ -t 1.000000000 -s 0 -d -1 -p cbr -e 1000 -c 2 -a 0 -i 0 -k AGT 
- -t 1.000000000 -s 0 -d -1 -p cbr -e 1000 -c 2 -a 0 -i 0 -k AGT
h -t 1.000000000 -s 0 -d -1 -p cbr -e 1000 -c 2 -a 0 -i 0 -k AGT
+ -t 1.000000000 -s 0 -d -1 -p AODV -e 48 -c 2 -a 0 -i 0 -k RTR 
- -t 1.000000000 -s 0 -d -1 -p AODV -e 48 -c 2 -a 0 -i 0 -k RTR
h -t 1.000000000 -s 0 -d -1 -p AODV -e 48 -c 2 -a 0 -i 0 -k RTR
r -t 1.001228374 -s 4 -d -1 -p AODV -e 48 -c 2 -a 0 -i 0 -k RTR
r -t 1.001228667 -s 1 -d -1 -p AODV -e 48 -c 2 -a 0 -i 0 -k RTR
+ -t 1.003102027 -s 4 -d -1 -p AODV -e 48 -c 2 -a 0 -i 0 -k RTR 
- -t 1.003102027 -s 4 -d -1 -p AODV -e 48 -c 2 -a 0 -i 0 -k RTR
h -t 1.003102027 -s 4 -d -1 -p AODV -e 48 -c 2 -a 0 -i 0 -k RTR
r -t 1.004270401 -s 0 -d -1 -p AODV -e 48 -c 2 -a 0 -i 0 -k RTR
r -t 1.004270404 -s 1 -d -1 -p AODV -e 48 -c 2 -a 0 -i 0 -k RTR
+ -t 1.010103102 -s 1 -d -1 -p AODV -e 48 -c 2 -a 0 -i 0 -k RTR 
- -t 1.010103102 -s 1 -d -1 -p AODV -e 48 -c 2 -a 0 -i 0 -k RTR
h -t 1.010103102 -s 1 -d -1 -p AODV -e 48 -c 2 -a 0 -i 0 -k RTR
r -t 1.011631479 -s 4 -d -1 -p AODV -e 48 -c 2 -a 0 -i 0 -k RTR
r -t 1.011631769 -s 2 -d -1 -p AODV -e 48 -c 2 -a 0 -i 0 -k RTR
r -t 1.011631769 -s 0 -d -1 -p AODV -e 48 -c 2 -a 0 -i 0 -k RTR
+ -t 1.011739852 -s 2 -d -1 -p AODV -e 48 -c 2 -a 0 -i 0 -k RTR 
- -t 1.011739852 -s 2 -d -1 -p AODV -e 48 -c 2 -a 0 -i 0 -k RTR
h -t 1.011739852 -s 2 -d -1 -p AODV -e 48 -c 2 -a 0 -i 0 -k RTR
r -t 1.013028228 -s 5 -d -1 -p AODV -e 48 -c 2 -a 0 -i 0 -k RTR
+ -t 1.013028228 -s 5 -d 2 -p AODV -e 44 -c 2 -a 0 -i 0 -k RTR 
- -t 1.013028228 -s 5 -d 2 -p AODV -e 44 -c 2 -a 0 -i 0 -k RTR
h -t 1.013028228 -s 5 -d 2 -p AODV -e 44 -c 2 -a 0 -i 0 -k RTR
r -t 1.013028321 -s 6 -d -1 -p AODV -e 48 -c 2 -a 0 -i 0 -k RTR
r -t 1.013028519 -s 1 -d -1 -p AODV -e 48 -c 2 -a 0 -i 0 -k RTR
r -t 1.013028522 -s 3 -d -1 -p AODV -e 48 -c 2 -a 0 -i 0 -k RTR
+ -t 1.013028522 -s 3 -d 2 -p AODV -e 44 -c 2 -a 0 -i 0 -k RTR 
- -t 1.013028522 -s 3 -d 2 -p AODV -e 44 -c 2 -a 0 -i 0 -k RTR
h -t 1.013028522 -s 3 -d 2 -p AODV -e 44 -c 2 -a 0 -i 0 -k RTR
+ -t 1.014259356 -s 6 -d -1 -p AODV -e 48 -c 2 -a 0 -i 0 -k RTR 
- -t 1.014259356 -s 6 -d -1 -p AODV -e 48 -c 2 -a 0 -i 0 -k RTR
h -t 1.014259356 -s 6 -d -1 -p AODV -e 48 -c 2 -a 0 -i 0 -k RTR
r -t 1.015713543 -s 3 -d -1 -p AODV -e 48 -c 2 -a 0 -i 0 -k RTR
r -t 1.015713543 -s 2 -d -1 -p AODV -e 48 -c 2 -a 0 -i 0 -k RTR
r -t 1.015713574 -s 5 -d -1 -p AODV -e 48 -c 2 -a 0 -i 0 -k RTR
+ -t 1.021096560 -s 2 -d 1 -p AODV -e 44 -c 2 -a 0 -i 0 -k RTR 
- -t 1.021096560 -s 2 -d 1 -p AODV -e 44 -c 2 -a 0 -i 0 -k RTR
h -t 1.021096560 -s 2 -d 1 -p AODV -e 44 -c 2 -a 0 -i 0 -k RTR
+ -t 1.027931907 -s 1 -d 0 -p AODV -e 44 -c 2 -a 0 -i 0 -k RTR 
- -t 1.027931907 -s 1 -d 0 -p AODV -e 44 -c 2 -a 0 -i 0 -k RTR
h -t 1.027931907 -s 1 -d 0 -p AODV -e 44 -c 2 -a 0 -i 0 -k RTR
+ -t 1.027940358 -s 1 -d -1 -p AODV -e 44 -c 2 -a 0 -i 0 -k RTR 
- -t 1.027940358 -s 1 -d -1 -p AODV -e 44 -c 2 -a 0 -i 0 -k RTR
h -t 1.027940358 -s 1 -d -1 -p AODV -e 44 -c 2 -a 0 -i 0 -k RTR
r -t 1.032365951 -s 4 -d -1 -p AODV -e 44 -c 2 -a 0 -i 0 -k RTR
r -t 1.032366241 -s 2 -d -1 -p AODV -e 44 -c 2 -a 0 -i 0 -k RTR
r -t 1.032366241 -s 0 -d -1 -p AODV -e 44 -c 2 -a 0 -i 0 -k RTR
+ -t 1.034029574 -s 0 -d 1 -p cbr -e 1020 -c 2 -a 0 -i 0 -k RTR 
- -t 1.034029574 -s 0 -d 1 -p cbr -e 1020 -c 2 -a 0 -i 0 -k RTR
h -t 1.034029574 -s 0 -d 1 -p cbr -e 1020 -c 2 -a 0 -i 0 -k RTR
+ -t 1.043815574 -s 1 -d 2 -p cbr -e 1020 -c 2 -a 0 -i 0 -k RTR 
- -t 1.043815574 -s 1 -d 2 -p cbr -e 1020 -c 2 -a 0 -i 0 -k RTR
h -t 1.043815574 -s 1 -d 2 -p cbr -e 1020 -c 2 -a 0 -i 0 -k RTR
+ -t 1.053581574 -s 2 -d 5 -p cbr -e 1020 -c 2 -a 0 -i 0 -k RTR 
- -t 1.053581574 -s 2 -d 5 -p cbr -e 1020 -c 2 -a 0 -i 0 -k RTR
h -t 1.053581574 -s 2 -d 5 -p cbr -e 1020 -c 2 -a 0 -i 0 -k RTR
d -t 1.063326701 -s 5 -d 5 -p cbr -e 1020 -c 2 -a 0 -i 0 -k RTR
+ -t 1.080000000 -s 0 -d -1 -p cbr -e 1000 -c 2 -a 0 -i 1 -k AGT 
- -t 1.080000000 -s 0 -d -1 -p cbr -e 1000 -c 2 -a 0 -i 1 -k AGT
h -t 1.080000000 -s 0 -d -1 -p cbr -e 1000 -c 2 -a 0 -i 1 -k AGT
+ -t 1.080000000 -s 0 -d 1 -p cbr -e 1020 -c 2 -a 0 -i 1 -k RTR 
- -t 1.080000000 -s 0 -d 1 -p cbr -e 1020 -c 2 -a 0 -i 1 -k RTR
h -t 1.080000000 -s 0 -d 1 -p cbr -e 1020 -c 2 -a 0 -i 1 -k RTR
+ -t 1.089462000 -s 1 -d 2 -p cbr -e 1020 -c 2 -a 0 -i 1 -k RTR 
- -t 1.089462000 -s 1 -d 2 -p cbr -e 1020 -c 2 -a 0 -i 1 -k RTR
h -t 1.089462000 -s 1 -d 2 -p cbr -e 1020 -c 2 -a 0 -i 1 -k RTR
+ -t 1.099468000 -s 2 -d 5 -p cbr -e 1020 -c 2 -a 0 -i 1 -k RTR 
- -t 1.099468000 -s 2 -d 5 -p cbr -e 1020 -c 2 -a 0 -i 1 -k RTR
h -t 1.099468000 -s 2 -d 5 -p cbr -e 1020 -c 2 -a 0 -i 1 -k RTR
d -t 1.109253127 -s 5 -d 5 -p cbr -e 1020 -c 2 -a 0 -i 1 -k RTR
+ -t 1.149577727 -s 5 -d -1 -p AODV -e 44 -c 2 -a 0 -i 0 -k RTR 
- -t 1.149577727 -s 5 -d -1 -p AODV -e 44 -c 2 -a 0 -i 0 -k RTR
h -t 1.149577727 -s 5 -d -1 -p AODV -e 44 -c 2 -a 0 -i 0 -k RTR
r -t 1.151094102 -s 2 -d -1 -p AODV -e 44 -c 2 -a 0 -i 0 -k RTR
r -t 1.151094104 -s 3 -d -1 -p AODV -e 44 -c 2 -a 0 -i 0 -k RTR
r -t 1.151094227 -s 6 -d -1 -p AODV -e 44 -c 2 -a 0 -i 0 -k RTR
+ -t 1.160000000 -s 0 -d -1 -p cbr -e 1000 -c 2 -a 0 -i 2 -k AGT 
- -t 1.160000000 -s 0 -d -1 -p cbr -e 1000 -c 2 -a 0 -i 2 -k AGT
h -t 1.160000000 -s 0 -d -1 -p cbr -e 1000 -c 2 -a 0 -i 2 -k AGT
+ -t 1.160000000 -s 0 -d 1 -p cbr -e 1020 -c 2 -a 0 -i 2 -k RTR 
- -t 1.160000000 -s 0 -d 1 -p cbr -e 1020 -c 2 -a 0 -i 2 -k RTR
h -t 1.160000000 -s 0 -d 1 -p cbr -e 1020 -c 2 -a 0 -i 2 -k RTR
+ -t 1.169942000 -s 1 -d 2 -p cbr -e 1020 -c 2 -a 0 -i 2 -k RTR 
- -t 1.169942000 -s 1 -d 2 -p cbr -e 1020 -c 2 -a 0 -i 2 -k RTR
h -t 1.169942000 -s 1 -d 2 -p cbr -e 1020 -c 2 -a 0 -i 2 -k RTR
+ -t 1.179908000 -s 2 -d 5 -p cbr -e 1020 -c 2 -a 0 -i 2 -k RTR 
- -t 1.179908000 -s 2 -d 5 -p cbr -e 1020 -c 2 -a 0 -i 2 -k RTR
h -t 1.179908000 -s 2 -d 5 -p cbr -e 1020 -c 2 -a 0 -i 2 -k RTR
d -t 1.189873127 -s 5 -d 5 -p cbr -e 1020 -c 2 -a 0 -i 2 -k RTR
+ -t 1.240000000 -s 0 -d -1 -p cbr -e 1000 -c 2 -a 0 -i 3 -k AGT 
- -t 1.240000000 -s 0 -d -1 -p cbr -e 1000 -c 2 -a 0 -i 3 -k AGT
h -t 1.240000000 -s 0 -d -1 -p cbr -e 1000 -c 2 -a 0 -i 3 -k AGT
+ -t 1.240000000 -s 0 -d 1 -p cbr -e 1020 -c 2 -a 0 -i 3 -k RTR 
- -t 1.240000000 -s 0 -d 1 -p cbr -e 1020 -c 2 -a 0 -i 3 -k RTR
h -t 1.240000000 -s 0 -d 1 -p cbr -e 1020 -c 2 -a 0 -i 3 -k RTR
+ -t 1.249982000 -s 1 -d 2 -p cbr -e 1020 -c 2 -a 0 -i 3 -k RTR 
- -t 1.249982000 -s 1 -d 2 -p cbr -e 1020 -c 2 -a 0 -i 3 -k RTR
h -t 1.249982000 -s 1 -d 2 -p cbr -e 1020 -c 2 -a 0 -i 3 -k RTR
+ -t 1.259868000 -s 2 -d 5 -p cbr -e 1020 -c 2 -a 0 -i 3 -k RTR 
- -t 1.259868000 -s 2 -d 5 -p cbr -e 1020 -c 2 -a 0 -i 3 -k RTR
h -t 1.259868000 -s 2 -d 5 -p cbr -e 1020 -c 2 -a 0 -i 3 -k RTR
d -t 1.269693127 -s 5 -d 5 -p cbr -e 1020 -c 2 -a 0 -i 3 -k RTR
+ -t 1.320000000 -s 0 -d -1 -p cbr -e 1000 -c 2 -a 0 -i 4 -k AGT 
- -t 1.320000000 -s 0 -d -1 -p cbr -e 1000 -c 2 -a 0 -i 4 -k AGT
h -t 1.320000000 -s 0 -d -1 -p cbr -e 1000 -c 2 -a 0 -i 4 -k AGT
+ -t 1.320000000 -s 0 -d 1 -p cbr -e 1020 -c 2 -a 0 -i 4 -k RTR 
- -t 1.320000000 -s 0 -d 1 -p cbr -e 1020 -c 2 -a 0 -i 4 -k RTR
h -t 1.320000000 -s 0 -d 1 -p cbr -e 1020 -c 2 -a 0 -i 4 -k RTR
+ -t 1.329522000 -s 1 -d 2 -p cbr -e 1020 -c 2 -a 0 -i 4 -k RTR 
- -t 1.329522000 -s 1 -d 2 -p cbr -e 1020 -c 2 -a 0 -i 4 -k RTR
h -t 1.329522000 -s 1 -d 2 -p cbr -e 1020 -c 2 -a 0 -i 4 -k RTR
+ -t 1.339348000 -s 2 -d 5 -p cbr -e 1020 -c 2 -a 0 -i 4 -k RTR 
- -t 1.339348000 -s 2 -d 5 -p cbr -e 1020 -c 2 -a 0 -i 4 -k RTR
h -t 1.339348000 -s 2 -d 5 -p cbr -e 1020 -c 2 -a 0 -i 4 -k RTR
d -t 1.349013127 -s 5 -d 5 -p cbr -e 1020 -c 2 -a 0 -i 4 -k RTR
+ -t 1.400000000 -s 0 -d -1 -p cbr -e 1000 -c 2 -a 0 -i 5 -k AGT 
- -t 1.400000000 -s 0 -d -1 -p cbr -e 1000 -c 2 -a 0 -i 5 -k AGT
h -t 1.400000000 -s 0 -d -1 -p cbr -e 1000 -c 2 -a 0 -i 5 -k AGT
+ -t 1.400000000 -s 0 -d 1 -p cbr -e 1020 -c 2 -a 0 -i 5 -k RTR 
- -t 1.400000000 -s 0 -d 1 -p cbr -e 1020 -c 2 -a 0 -i 5 -k RTR
h -t 1.400000000 -s 0 -d 1 -p cbr -e 1020 -c 2 -a 0 -i 5 -k RTR
+ -t 1.409722000 -s 1 -d 2 -p cbr -e 1020 -c 2 -a 0 -i 5 -k RTR 
- -t 1.409722000 -s 1 -d 2 -p cbr -e 1020 -c 2 -a 0 -i 5 -k RTR
h -t 1.409722000 -s 1 -d 2 -p cbr -e 1020 -c 2 -a 0 -i 5 -k RTR
+ -t 1.419808000 -s 2 -d 5 -p cbr -e 1020 -c 2 -a 0 -i 5 -k RTR 
- -t 1.419808000 -s 2 -d 5 -p cbr -e 1020 -c 2 -a 0 -i 5 -k RTR
h -t 1.419808000 -s 2 -d 5 -p cbr -e 1020 -c 2 -a 0 -i 5 -k RTR
d -t 1.429793127 -s 5 -d 5 -p cbr -e 1020 -c 2 -a 0 -i 5 -k RTR
+ -t 1.480000000 -s 0 -d -1 -p cbr -e 1000 -c 2 -a 0 -i 6 -k AGT 
- -t 1.480000000 -s 0 -d -1 -p cbr -e 1000 -c 2 -a 0 -i 6 -k AGT
h -t 1.480000000 -s 0 -d -1 -p cbr -e 1000 -c 2 -a 0 -i 6 -k AGT
+ -t 1.480000000 -s 0 -d 1 -p cbr -e 1020 -c 2 -a 0 -i 6 -k RTR 
- -t 1.480000000 -s 0 -d 1 -p cbr -e 1020 -c 2 -a 0 -i 6 -k RTR
h -t 1.480000000 -s 0 -d 1 -p cbr -e 1020 -c 2 -a 0 -i 6 -k RTR
+ -t 1.489662000 -s 1 -d 2 -p cbr -e 1020 -c 2 -a 0 -i 6 -k RTR 
- -t 1.489662000 -s 1 -d 2 -p cbr -e 1020 -c 2 -a 0 -i 6 -k RTR
h -t 1.489662000 -s 1 -d 2 -p cbr -e 1020 -c 2 -a 0 -i 6 -k RTR
+ -t 1.499428000 -s 2 -d 5 -p cbr -e 1020 -c 2 -a 0 -i 6 -k RTR 
- -t 1.499428000 -s 2 -d 5 -p cbr -e 1020 -c 2 -a 0 -i 6 -k RTR
h -t 1.499428000 -s 2 -d 5 -p cbr -e 1020 -c 2 -a 0 -i 6 -k RTR
d -t 1.509153127 -s 5 -d 5 -p cbr -e 1020 -c 2 -a 0 -i 6 -k RTR
+ -t 1.560000000 -s 0 -d -1 -p cbr -e 1000 -c 2 -a 0 -i 7 -k AGT 
- -t 1.560000000 -s 0 -d -1 -p cbr -e 1000 -c 2 -a 0 -i 7 -k AGT
h -t 1.560000000 -s 0 -d -1 -p cbr -e 1000 -c 2 -a 0 -i 7 -k AGT
+ -t 1.560000000 -s 0 -d 1 -p cbr -e 1020 -c 2 -a 0 -i 7 -k RTR 
- -t 1.560000000 -s 0 -d 1 -p cbr -e 1020 -c 2 -a 0 -i 7 -k RTR
h -t 1.560000000 -s 0 -d 1 -p cbr -e 1020 -c 2 -a 0 -i 7 -k RTR
+ -t 1.569822000 -s 1 -d 2 -p cbr -e 1020 -c 2 -a 0 -i 7 -k RTR 
- -t 1.569822000 -s 1 -d 2 -p cbr -e 1020 -c 2 -a 0 -i 7 -k RTR
h -t 1.569822000 -s 1 -d 2 -p cbr -e 1020 -c 2 -a 0 -i 7 -k RTR
+ -t 1.579508000 -s 2 -d 5 -p cbr -e 1020 -c 2 -a 0 -i 7 -k RTR 
- -t 1.579508000 -s 2 -d 5 -p cbr -e 1020 -c 2 -a 0 -i 7 -k RTR
h -t 1.579508000 -s 2 -d 5 -p cbr -e 1020 -c 2 -a 0 -i 7 -k RTR
d -t 1.589233127 -s 5 -d 5 -p cbr -e 1020 -c 2 -a 0 -i 7 -k RTR
+ -t 1.640000000 -s 0 -d -1 -p cbr -e 1000 -c 2 -a 0 -i 8 -k AGT 
- -t 1.640000000 -s 0 -d -1 -p cbr -e 1000 -c 2 -a 0 -i 8 -k AGT
h -t 1.640000000 -s 0 -d -1 -p cbr -e 1000 -c 2 -a 0 -i 8 -k AGT
+ -t 1.640000000 -s 0 -d 1 -p cbr -e 1020 -c 2 -a 0 -i 8 -k RTR 
- -t 1.640000000 -s 0 -d 1 -p cbr -e 1020 -c 2 -a 0 -i 8 -k RTR
h -t 1.640000000 -s 0 -d 1 -p cbr -e 1020 -c 2 -a 0 -i 8 -k RTR
+ -t 1.649422000 -s 1 -d 2 -p cbr -e 1020 -c 2 -a 0 -i 8 -k RTR 
- -t 1.649422000 -s 1 -d 2 -p cbr -e 1020 -c 2 -a 0 -i 8 -k RTR
h -t 1.649422000 -s 1 -d 2 -p cbr -e 1020 -c 2 -a 0 -i 8 -k RTR
+ -t 1.659468000 -s 2 -d 5 -p cbr -e 1020 -c 2 -a 0 -i 8 -k RTR 
- -t 1.659468000 -s 2 -d 5 -p cbr -e 1020 -c 2 -a 0 -i 8 -k RTR
h -t 1.659468000 -s 2 -d 5 -p cbr -e 1020 -c 2 -a 0 -i 8 -k RTR
d -t 1.669513127 -s 5 -d 5 -p cbr -e 1020 -c 2 -a 0 -i 8 -k RTR
+ -t 1.674540301 -s 0 -d -1 -p AODV -e 44 -c 2 -a 0 -i 0 -k RTR 
- -t 1.674540301 -s 0 -d -1 -p AODV -e 44 -c 2 -a 0 -i 0 -k RTR
h -t 1.674540301 -s 0 -d -1 -p AODV -e 44 -c 2 -a 0 -i 0 -k RTR
r -t 1.675996676 -s 4 -d -1 -p AODV -e 44 -c 2 -a 0 -i 0 -k RTR
r -t 1.675996968 -s 1 -d -1 -p AODV -e 44 -c 2 -a 0 -i 0 -k RTR
+ -t 1.720000000 -s 0 -d -1 -p cbr -e 1000 -c 2 -a 0 -i 9 -k AGT 
- -t 1.720000000 -s 0 -d -1 -p cbr -e 1000 -c 2 -a 0 -i 9 -k AGT
h -t 1.720000000 -s 0 -d -1 -p cbr -e 1000 -c 2 -a 0 -i 9 -k AGT
+ -t 1.720000000 -s 0 -d 1 -p cbr -e 1020 -c 2 -a 0 -i 9 -k RTR 
- -t 1.720000000 -s 0 -d 1 -p cbr -e 1020 -c 2 -a 0 -i 9 -k RTR
h -t 1.720000000 -s 0 -d 1 -p cbr -e 1020 -c 2 -a 0 -i 9 -k RTR
+ -t 1.729542000 -s 1 -d 2 -p cbr -e 1020 -c 2 -a 0 -i 9 -k RTR 
- -t 1.729542000 -s 1 -d 2 -p cbr -e 1020 -c 2 -a 0 -i 9 -k RTR
h -t 1.729542000 -s 1 -d 2 -p cbr -e 1020 -c 2 -a 0 -i 9 -k RTR
+ -t 1.739448000 -s 2 -d 5 -p cbr -e 1020 -c 2 -a 0 -i 9 -k RTR 
- -t 1.739448000 -s 2 -d 5 -p cbr -e 1020 -c 2 -a 0 -i 9 -k RTR
h -t 1.739448000 -s 2 -d 5 -p cbr -e 1020 -c 2 -a 0 -i 9 -k RTR
d -t 1.749213127 -s 5 -d 5 -p cbr -e 1020 -c 2 -a 0 -i 9 -k RTR
+ -t 1.766426728 -s 2 -d -1 -p AODV -e 44 -c 2 -a 0 -i 0 -k RTR 
- -t 1.766426728 -s 2 -d -1 -p AODV -e 44 -c 2 -a 0 -i 0 -k RTR
h -t 1.766426728 -s 2 -d -1 -p AODV -e 44 -c 2 -a 0 -i 0 -k RTR
r -t 1.767923103 -s 5 -d -1 -p AODV -e 44 -c 2 -a 0 -i 0 -k RTR
r -t 1.767923197 -s 6 -d -1 -p AODV -e 44 -c 2 -a 0 -i 0 -k RTR
r -t 1.767923394 -s 1 -d -1 -p AODV -e 44 -c 2 -a 0 -i 0 -k RTR
r -t 1.767923398 -s 3 -d -1 -p AODV -e 44 -c 2 -a 0 -i 0 -k RTR
+ -t 1.777093700 -s 6 -d -1 -p AODV -e 44 -c 2 -a 0 -i 0 -k RTR 
- -t 1.777093700 -s 6 -d -1 -p AODV -e 44 -c 2 -a 0 -i 0 -k RTR
h -t 1.777093700 -s 6 -d -1 -p AODV -e 44 -c 2 -a 0 -i 0 -k RTR
r -t 1.778530169 -s 3 -d -1 -p AODV -e 44 -c 2 -a 0 -i 0 -k RTR
r -t 1.778530169 -s 2 -d -1 -p AODV -e 44 -c 2 -a 0 -i 0 -k RTR
r -t 1.778530200 -s 5 -d -1 -p AODV -e 44 -c 2 -a 0 -i 0 -k RTR
+ -t 1.800000000 -s 0 -d -1 -p cbr -e 1000 -c 2 -a 0 -i 10 -k AGT 
- -t 1.800000000 -s 0 -d -1 -p cbr -e 1000 -c 2 -a 0 -i 10 -k AGT
h -t 1.800000000 -s 0 -d -1 -p cbr -e 1000 -c 2 -a 0 -i 10 -k AGT
+ -t 1.800000000 -s 0 -d 1 -p cbr -e 1020 -c 2 -a 0 -i 10 -k RTR 
- -t 1.800000000 -s 0 -d 1 -p cbr -e 1020 -c 2 -a 0 -i 10 -k RTR
h -t 1.800000000 -s 0 -d 1 -p cbr -e 1020 -c 2 -a 0 -i 10 -k RTR
+ -t 1.809642000 -s 1 -d 2 -p cbr -e 1020 -c 2 -a 0 -i 10 -k RTR 
- -t 1.809642000 -s 1 -d 2 -p cbr -e 1020 -c 2 -a 0 -i 10 -k RTR
h -t 1.809642000 -s 1 -d 2 -p cbr -e 1020 -c 2 -a 0 -i 10 -k RTR
+ -t 1.819828000 -s 2 -d 5 -p cbr -e 1020 -c 2 -a 0 -i 10 -k RTR 
- -t 1.819828000 -s 2 -d 5 -p cbr -e 1020 -c 2 -a 0 -i 10 -k RTR
h -t 1.819828000 -s 2 -d 5 -p cbr -e 1020 -c 2 -a 0 -i 10 -k RTR
d -t 1.829673127 -s 5 -d 5 -p cbr -e 1020 -c 2 -a 0 -i 10 -k RTR
+ -t 1.867304283 -s 1 -d -1 -p AODV -e 44 -c 2 -a 0 -i 0 -k RTR 
- -t 1.867304283 -s 1 -d -1 -p AODV -e 44 -c 2 -a 0 -i 0 -k RTR
h -t 1.867304283 -s 1 -d -1 -p AODV -e 44 -c 2 -a 0 -i 0 -k RTR
r -t 1.868460660 -s 4 -d -1 -p AODV -e 44 -c 2 -a 0 -i 0 -k RTR
r -t 1.868460950 -s 2 -d -1 -p AODV -e 44 -c 2 -a 0 -i 0 -k RTR
r -t 1.868460950 -s 0 -d -1 -p AODV -e 44 -c 2 -a 0 -i 0 -k RTR
+ -t 1.880000000 -s 0 -d -1 -p cbr -e 1000 -c 2 -a 0 -i 11 -k AGT 
- -t 1.880000000 -s 0 -d -1 -p cbr -e 1000 -c 2 -a 0 -i 11 -k AGT
h -t 1.880000000 -s 0 -d -1 -p cbr -e 1000 -c 2 -a 0 -i 11 -k AGT
+ -t 1.880000000 -s 0 -d 1 -p cbr -e 1020 -c 2 -a 0 -i 11 -k RTR 
- -t 1.880000000 -s 0 -d 1 -p cbr -e 1020 -c 2 -a 0 -i 11 -k RTR
h -t 1.880000000 -s 0 -d 1 -p cbr -e 1020 -c 2 -a 0 -i 11 -k RTR
+ -t 1.889522000 -s 1 -d 2 -p cbr -e 1020 -c 2 -a 0 -i 11 -k RTR 
- -t 1.889522000 -s 1 -d 2 -p cbr -e 1020 -c 2 -a 0 -i 11 -k RTR
h -t 1.889522000 -s 1 -d 2 -p cbr -e 1020 -c 2 -a 0 -i 11 -k RTR
+ -t 1.899548000 -s 2 -d 5 -p cbr -e 1020 -c 2 -a 0 -i 11 -k RTR 
- -t 1.899548000 -s 2 -d 5 -p cbr -e 1020 -c 2 -a 0 -i 11 -k RTR
h -t 1.899548000 -s 2 -d 5 -p cbr -e 1020 -c 2 -a 0 -i 11 -k RTR
d -t 1.909713127 -s 5 -d 5 -p cbr -e 1020 -c 2 -a 0 -i 11 -k RTR
+ -t 1.960000000 -s 0 -d -1 -p cbr -e 1000 -c 2 -a 0 -i 12 -k AGT 
- -t 1.960000000 -s 0 -d -1 -p cbr -e 1000 -c 2 -a 0 -i 12 -k AGT
h -t 1.960000000 -s 0 -d -1 -p cbr -e 1000 -c 2 -a 0 -i 12 -k AGT
+ -t 1.960000000 -s 0 -d 1 -p cbr -e 1020 -c 2 -a 0 -i 12 -k RTR 
- -t 1.960000000 -s 0 -d 1 -p cbr -e 1020 -c 2 -a 0 -i 12 -k RTR
h -t 1.960000000 -s 0 -d 1 -p cbr -e 1020 -c 2 -a 0 -i 12 -k RTR
+ -t 1.969942000 -s 1 -d 2 -p cbr -e 1020 -c 2 -a 0 -i 12 -k RTR 
- -t 1.969942000 -s 1 -d 2 -p cbr -e 1020 -c 2 -a 0 -i 12 -k RTR
h -t 1.969942000 -s 1 -d 2 -p cbr -e 1020 -c 2 -a 0 -i 12 -k RTR
+ -t 1.975094976 -s 3 -d -1 -p AODV -e 44 -c 2 -a 0 -i 0 -k RTR 
- -t 1.975094976 -s 3 -d -1 -p AODV -e 44 -c 2 -a 0 -i 0 -k RTR
h -t 1.975094976 -s 3 -d -1 -p AODV -e 44 -c 2 -a 0 -i 0 -k RTR
+ -t 1.980148000 -s 2 -d 5 -p cbr -e 1020 -c 2 -a 0 -i 12 -k RTR 
- -t 1.980148000 -s 2 -d 5 -p cbr -e 1020 -c 2 -a 0 -i 12 -k RTR
h -t 1.980148000 -s 2 -d 5 -p cbr -e 1020 -c 2 -a 0 -i 12 -k RTR
d -t 1.989813127 -s 5 -d 5 -p cbr -e 1020 -c 2 -a 0 -i 12 -k RTR
r -t 1.991353882 -s 5 -d -1 -p AODV -e 44 -c 2 -a 0 -i 0 -k RTR
r -t 1.991353973 -s 6 -d -1 -p AODV -e 44 -c 2 -a 0 -i 0 -k RTR
r -t 1.991354174 -s 2 -d -1 -p AODV -e 44 -c 2 -a 0 -i 0 -k RTR
+ -t 2.040000000 -s 0 -d -1 -p cbr -e 1000 -c 2 -a 0 -i 13 -k AGT 
- -t 2.040000000 -s 0 -d -1 -p cbr -e 1000 -c 2 -a 0 -i 13 -k AGT
h -t 2.040000000 -s 0 -d -1 -p cbr -e 1000 -c 2 -a 0 -i 13 -k AGT
+ -t 2.040000000 -s 0 -d 1 -p cbr -e 1020 -c 2 -a 0 -i 13 -k RTR 
- -t 2.040000000 -s 0 -d 1 -p cbr -e 1020 -c 2 -a 0 -i 13 -k RTR
h -t 2.040000000 -s 0 -d 1 -p cbr -e 1020 -c 2 -a 0 -i 13 -k RTR
+ -t 2.049742000 -s 1 -d 2 -p cbr -e 1020 -c 2 -a 0 -i 13 -k RTR 
- -t 2.049742000 -s 1 -d 2 -p cbr -e 1020 -c 2 -a 0 -i 13 -k RTR
h -t 2.049742000 -s 1 -d 2 -p cbr -e 1020 -c 2 -a 0 -i 13 -k RTR
+ -t 2.059728000 -s 2 -d 5 -p cbr -e 1020 -c 2 -a 0 -i 13 -k RTR 
- -t 2.059728000 -s 2 -d 5 -p cbr -e 1020 -c 2 -a 0 -i 13 -k RTR
h -t 2.059728000 -s 2 -d 5 -p cbr -e 1020 -c 2 -a 0 -i 13 -k RTR
d -t 2.069433127 -s 5 -d 5 -p cbr -e 1020 -c 2 -a 0 -i 13 -k RTR
+ -t 2.077607017 -s 5 -d -1 -p AODV -e 44 -c 2 -a 0 -i 0 -k RTR 
- -t 2.077607017 -s 5 -d -1 -p AODV -e 44 -c 2 -a 0 -i 0 -k RTR
h -t 2.077607017 -s 5 -d -1 -p AODV -e 44 -c 2 -a 0 -i 0 -k RTR
r -t 2.079123393 -s 2 -d -1 -p AODV -e 44 -c 2 -a 0 -i 0 -k RTR
r -t 2.079123394 -s 3 -d -1 -p AODV -e 44 -c 2 -a 0 -i 0 -k RTR
r -t 2.079123517 -s 6 -d -1 -p AODV -e 44 -c 2 -a 0 -i 0 -k RTR
+ -t 2.101702637 -s 4 -d -1 -p AODV -e 44 -c 2 -a 0 -i 0 -k RTR 
- -t 2.101702637 -s 4 -d -1 -p AODV -e 44 -c 2 -a 0 -i 0 -k RTR
h -t 2.101702637 -s 4 -d -1 -p AODV -e 44 -c 2 -a 0 -i 0 -k RTR
r -t 2.102939012 -s 0 -d -1 -p AODV -e 44 -c 2 -a 0 -i 0 -k RTR
r -t 2.102939015 -s 1 -d -1 -p AODV -e 44 -c 2 -a 0 -i 0 -k RTR
+ -t 2.120000000 -s 0 -d -1 -p cbr -e 1000 -c 2 -a 0 -i 14 -k AGT 
- -t 2.120000000 -s 0 -d -1 -p cbr -e 1000 -c 2 -a 0 -i 14 -k AGT
h -t 2.120000000 -s 0 -d -1 -p cbr -e 1000 -c 2 -a 0 -i 14 -k AGT
+ -t 2.120000000 -s 0 -d 1 -p cbr -e 1020 -c 2 -a 0 -i 14 -k RTR 
- -t 2.120000000 -s 0 -d 1 -p cbr -e 1020 -c 2 -a 0 -i 14 -k RTR
h -t 2.120000000 -s 0 -d 1 -p cbr -e 1020 -c 2 -a 0 -i 14 -k RTR
+ -t 2.129462000 -s 1 -d 2 -p cbr -e 1020 -c 2 -a 0 -i 14 -k RTR 
- -t 2.129462000 -s 1 -d 2 -p cbr -e 1020 -c 2 -a 0 -i 14 -k RTR
h -t 2.129462000 -s 1 -d 2 -p cbr -e 1020 -c 2 -a 0 -i 14 -k RTR
+ -t 2.139428000 -s 2 -d 5 -p cbr -e 1020 -c 2 -a 0 -i 14 -k RTR 
- -t 2.139428000 -s 2 -d 5 -p cbr -e 1020 -c 2 -a 0 -i 14 -k RTR
h -t 2.139428000 -s 2 -d 5 -p cbr -e 1020 -c 2 -a 0 -i 14 -k RTR
d -t 2.149213127 -s 5 -d 5 -p cbr -e 1020 -c 2 -a 0 -i 14 -k RTR
+ -t 2.200000000 -s 0 -d -1 -p cbr -e 1000 -c 2 -a 0 -i 15 -k AGT 
- -t 2.200000000 -s 0 -d -1 -p cbr -e 1000 -c 2 -a 0 -i 15 -k AGT
h -t 2.200000000 -s 0 -d -1 -p cbr -e 1000 -c 2 -a 0 -i 15 -k AGT
+ -t 2.200000000 -s 0 -d 1 -p cbr -e 1020 -c 2 -a 0 -i 15 -k RTR 
- -t 2.200000000 -s 0 -d 1 -p cbr -e 1020 -c 2 -a 0 -i 15 -k RTR
h -t 2.200000000 -s 0 -d 1 -p cbr -e 1020 -c 2 -a 0 -i 15 -k RTR
+ -t 2.209402000 -s 1 -d 2 -p cbr -e 1020 -c 2 -a 0 -i 15 -k RTR 
- -t 2.209402000 -s 1 -d 2 -p cbr -e 1020 -c 2 -a 0 -i 15 -k RTR
h -t 2.209402000 -s 1 -d 2 -p cbr -e 1020 -c 2 -a 0 -i 15 -k RTR
+ -t 2.219148000 -s 2 -d 5 -p cbr -e 1020 -c 2 -a 0 -i 15 -k RTR 
- -t 2.219148000 -s 2 -d 5 -p cbr -e 1020 -c 2 -a 0 -i 15 -k RTR
h -t 2.219148000 -s 2 -d 5 -p cbr -e 1020 -c 2 -a 0 -i 15 -k RTR
d -t 2.229273127 -s 5 -d 5 -p cbr -e 1020 -c 2 -a 0 -i 15 -k RTR
+ -t 2.280000000 -s 0 -d -1 -p cbr -e 1000 -c 2 -a 0 -i 16 -k AGT 
- -t 2.280000000 -s 0 -d -1 -p cbr -e 1000 -c 2 -a 0 -i 16 -k AGT
h -t 2.280000000 -s 0 -d -1 -p cbr -e 1000 -c 2 -a 0 -i 16 -k AGT
+ -t 2.280000000 -s 0 -d 1 -p cbr -e 1020 -c 2 -a 0 -i 16 -k RTR 
- -t 2.280000000 -s 0 -d 1 -p cbr -e 1020 -c 2 -a 0 -i 16 -k RTR
h -t 2.280000000 -s 0 -d 1 -p cbr -e 1020 -c 2 -a 0 -i 16 -k RTR
+ -t 2.289762000 -s 1 -d 2 -p cbr -e 1020 -c 2 -a 0 -i 16 -k RTR 
- -t 2.289762000 -s 1 -d 2 -p cbr -e 1020 -c 2 -a 0 -i 16 -k RTR
h -t 2.289762000 -s 1 -d 2 -p cbr -e 1020 -c 2 -a 0 -i 16 -k RTR
+ -t 2.299528000 -s 2 -d 5 -p cbr -e 1020 -c 2 -a 0 -i 16 -k RTR 
- -t 2.299528000 -s 2 -d 5 -p cbr -e 1020 -c 2 -a 0 -i 16 -k RTR
h -t 2.299528000 -s 2 -d 5 -p cbr -e 1020 -c 2 -a 0 -i 16 -k RTR
d -t 2.309713127 -s 5 -d 5 -p cbr -e 1020 -c 2 -a 0 -i 16 -k RTR
+ -t 2.360000000 -s 0 -d -1 -p cbr -e 1000 -c 2 -a 0 -i 17 -k AGT 
- -t 2.360000000 -s 0 -d -1 -p cbr -e 1000 -c 2 -a 0 -i 17 -k AGT
h -t 2.360000000 -s 0 -d -1 -p cbr -e 1000 -c 2 -a 0 -i 17 -k AGT
+ -t 2.360000000 -s 0 -d 1 -p cbr -e 1020 -c 2 -a 0 -i 17 -k RTR 
- -t 2.360000000 -s 0 -d 1 -p cbr -e 1020 -c 2 -a 0 -i 17 -k RTR
h -t 2.360000000 -s 0 -d 1 -p cbr -e 1020 -c 2 -a 0 -i 17 -k RTR
+ -t 2.369862000 -s 1 -d 2 -p cbr -e 1020 -c 2 -a 0 -i 17 -k RTR 
- -t 2.369862000 -s 1 -d 2 -p cbr -e 1020 -c 2 -a 0 -i 17 -k RTR
h -t 2.369862000 -s 1 -d 2 -p cbr -e 1020 -c 2 -a 0 -i 17 -k RTR
+ -t 2.379588000 -s 2 -d 5 -p cbr -e 1020 -c 2 -a 0 -i 17 -k RTR 
- -t 2.379588000 -s 2 -d 5 -p cbr -e 1020 -c 2 -a 0 -i 17 -k RTR
h -t 2.379588000 -s 2 -d 5 -p cbr -e 1020 -c 2 -a 0 -i 17 -k RTR
d -t 2.389573127 -s 5 -d 5 -p cbr -e 1020 -c 2 -a 0 -i 17 -k RTR
+ -t 2.440000000 -s 0 -d -1 -p cbr -e 1000 -c 2 -a 0 -i 18 -k AGT 
- -t 2.440000000 -s 0 -d -1 -p cbr -e 1000 -c 2 -a 0 -i 18 -k AGT
h -t 2.440000000 -s 0 -d -1 -p cbr -e 1000 -c 2 -a 0 -i 18 -k AGT
+ -t 2.440000000 -s 0 -d 1 -p cbr -e 1020 -c 2 -a 0 -i 18 -k RTR 
- -t 2.440000000 -s 0 -d 1 -p cbr -e 1020 -c 2 -a 0 -i 18 -k RTR
h -t 2.440000000 -s 0 -d 1 -p cbr -e 1020 -c 2 -a 0 -i 18 -k RTR
+ -t 2.449662000 -s 1 -d 2 -p cbr -e 1020 -c 2 -a 0 -i 18 -k RTR 
- -t 2.449662000 -s 1 -d 2 -p cbr -e 1020 -c 2 -a 0 -i 18 -k RTR
h -t 2.449662000 -s 1 -d 2 -p cbr -e 1020 -c 2 -a 0 -i 18 -k RTR
+ -t 2.459688000 -s 2 -d 5 -p cbr -e 1020 -c 2 -a 0 -i 18 -k RTR 
- -t 2.459688000 -s 2 -d 5 -p cbr -e 1020 -c 2 -a 0 -i 18 -k RTR
h -t 2.459688000 -s 2 -d 5 -p cbr -e 1020 -c 2 -a 0 -i 18 -k RTR
d -t 2.469513127 -s 5 -d 5 -p cbr -e 1020 -c 2 -a 0 -i 18 -k RTR
+ -t 2.503797160 -s 0 -d -1 -p AODV -e 44 -c 2 -a 0 -i 0 -k RTR 
- -t 2.503797160 -s 0 -d -1 -p AODV -e 44 -c 2 -a 0 -i 0 -k RTR
h -t 2.503797160 -s 0 -d -1 -p AODV -e 44 -c 2 -a 0 -i 0 -k RTR
r -t 2.505073534 -s 4 -d -1 -p AODV -e 44 -c 2 -a 0 -i 0 -k RTR
r -t 2.505073827 -s 1 -d -1 -p AODV -e 44 -c 2 -a 0 -i 0 -k RTR
+ -t 2.520000000 -s 0 -d -1 -p cbr -e 1000 -c 2 -a 0 -i 19 -k AGT 
- -t 2.520000000 -s 0 -d -1 -p cbr -e 1000 -c 2 -a 0 -i 19 -k AGT
h -t 2.520000000 -s 0 -d -1 -p cbr -e 1000 -c 2 -a 0 -i 19 -k AGT
+ -t 2.520000000 -s 0 -d 1 -p cbr -e 1020 -c 2 -a 0 -i 19 -k RTR 
- -t 2.520000000 -s 0 -d 1 -p cbr -e 1020 -c 2 -a 0 -i 19 -k RTR
h -t 2.520000000 -s 0 -d 1 -p cbr -e 1020 -c 2 -a 0 -i 19 -k RTR
+ -t 2.529862000 -s 1 -d 2 -p cbr -e 1020 -c 2 -a 0 -i 19 -k RTR 
- -t 2.529862000 -s 1 -d 2 -p cbr -e 1020 -c 2 -a 0 -i 19 -k RTR
h -t 2.529862000 -s 1 -d 2 -p cbr -e 1020 -c 2 -a 0 -i 19 -k RTR
+ -t 2.539788000 -s 2 -d 5 -p cbr -e 1020 -c 2 -a 0 -i 19 -k RTR 
- -t 2.539788000 -s 2 -d 5 -p cbr -e 1020 -c 2 -a 0 -i 19 -k RTR
h -t 2.539788000 -s 2 -d 5 -p cbr -e 1020 -c 2 -a 0 -i 19 -k RTR
d -t 2.549873127 -s 5 -d 5 -p cbr -e 1020 -c 2 -a 0 -i 19 -k RTR
+ -t 2.600000000 -s 0 -d -1 -p cbr -e 1000 -c 2 -a 0 -i 20 -k AGT 
- -t 2.600000000 -s 0 -d -1 -p cbr -e 1000 -c 2 -a 0 -i 20 -k AGT
h -t 2.600000000 -s 0 -d -1 -p cbr -e 1000 -c 2 -a 0 -i 20 -k AGT
+ -t 2.600000000 -s 0 -d 1 -p cbr -e 1020 -c 2 -a 0 -i 20 -k RTR 
- -t 2.600000000 -s 0 -d 1 -p cbr -e 1020 -c 2 -a 0 -i 20 -k RTR
h -t 2.600000000 -s 0 -d 1 -p cbr -e 1020 -c 2 -a 0 -i 20 -k RTR
+ -t 2.609802000 -s 1 -d 2 -p cbr -e 1020 -c 2 -a 0 -i 20 -k RTR 
- -t 2.609802000 -s 1 -d 2 -p cbr -e 1020 -c 2 -a 0 -i 20 -k RTR
h -t 2.609802000 -s 1 -d 2 -p cbr -e 1020 -c 2 -a 0 -i 20 -k RTR
+ -t 2.619568000 -s 2 -d 5 -p cbr -e 1020 -c 2 -a 0 -i 20 -k RTR 
- -t 2.619568000 -s 2 -d 5 -p cbr -e 1020 -c 2 -a 0 -i 20 -k RTR
h -t 2.619568000 -s 2 -d 5 -p cbr -e 1020 -c 2 -a 0 -i 20 -k RTR
d -t 2.629753127 -s 5 -d 5 -p cbr -e 1020 -c 2 -a 0 -i 20 -k RTR
+ -t 2.680000000 -s 0 -d -1 -p cbr -e 1000 -c 2 -a 0 -i 21 -k AGT 
- -t 2.680000000 -s 0 -d -1 -p cbr -e 1000 -c 2 -a 0 -i 21 -k AGT
h -t 2.680000000 -s 0 -d -1 -p cbr -e 1000 -c 2 -a 0 -i 21 -k AGT
+ -t 2.680000000 -s 0 -d 1 -p cbr -e 1020 -c 2 -a 0 -i 21 -k RTR 
- -t 2.680000000 -s 0 -d 1 -p cbr -e 1020 -c 2 -a 0 -i 21 -k RTR
h -t 2.680000000 -s 0 -d 1 -p cbr -e 1020 -c 2 -a 0 -i 21 -k RTR
+ -t 2.690002000 -s 1 -d 2 -p cbr -e 1020 -c 2 -a 0 -i 21 -k RTR 
- -t 2.690002000 -s 1 -d 2 -p cbr -e 1020 -c 2 -a 0 -i 21 -k RTR
h -t 2.690002000 -s 1 -d 2 -p cbr -e 1020 -c 2 -a 0 -i 21 -k RTR
+ -t 2.700248000 -s 2 -d 5 -p cbr -e 1020 -c 2 -a 0 -i 21 -k RTR 
- -t 2.700248000 -s 2 -d 5 -p cbr -e 1020 -c 2 -a 0 -i 21 -k RTR