s 0.000000000 _0_ RTR  --- 0 AODV 44 [0 0 0 0] ------- [0:255 -1:255 1 0] [0x1 1 [0 2] 4.000000] (HELLO)
s 0.000000000 _1_ RTR  --- 0 AODV 44 [0 0 0 0] ------- [1:255 -1:255 1 0] [0x1 1 [1 2] 4.000000] (HELLO)
s 0.000000000 _2_ RTR  --- 0 AODV 44 [0 0 0 0] ------- [2:255 -1:255 1 0] [0x1 1 [2 2] 4.000000] (HELLO)
s 0.000000000 _3_ RTR  --- 0 AODV 44 [0 0 0 0] ------- [3:255 -1:255 1 0] [0x1 1 [3 2] 4.000000] (HELLO)
s 0.000000000 _4_ RTR  --- 0 AODV 44 [0 0 0 0] ------- [4:255 -1:255 1 0] [0x1 1 [4 2] 4.000000] (HELLO)
s 0.000000000 _5_ RTR  --- 0 AODV 44 [0 0 0 0] ------- [5:255 -1:255 1 0] [0x1 1 [5 2] 4.000000] (HELLO)
s 0.000000000 _6_ RTR  --- 0 AODV 44 [0 0 0 0] ------- [6:255 -1:255 1 0] [0x1 1 [6 2] 4.000000] (HELLO)
r 0.000956376 _2_ RTR  --- 0 AODV 44 [0 ffffffff 5 800] ------- [5:255 -1:255 1 0] [0x1 1 [5 2] 4.000000] (HELLO)
r 0.000956377 _3_ RTR  --- 0 AODV 44 [0 ffffffff 5 800] ------- [5:255 -1:255 1 0] [0x1 1 [5 2] 4.000000] (HELLO)
r 0.000956500 _6_ RTR  --- 0 AODV 44 [0 ffffffff 5 800] ------- [5:255 -1:255 1 0] [0x1 1 [5 2] 4.000000] (HELLO)
r 0.002042754 _5_ RTR  --- 0 AODV 44 [0 ffffffff 3 800] ------- [3:255 -1:255 1 0] [0x1 1 [3 2] 4.000000] (HELLO)
r 0.002042846 _6_ RTR  --- 0 AODV 44 [0 ffffffff 3 800] ------- [3:255 -1:255 1 0] [0x1 1 [3 2] 4.000000] (HELLO)
r 0.002043047 _2_ RTR  --- 0 AODV 44 [0 ffffffff 3 800] ------- [3:255 -1:255 1 0] [0x1 1 [3 2] 4.000000] (HELLO)
r 0.003679384 _5_ RTR  --- 0 AODV 44 [0 ffffffff 2 800] ------- [2:255 -1:255 1 0] [0x1 1 [2 2] 4.000000] (HELLO)
r 0.003679478 _6_ RTR  --- 0 AODV 44 [0 ffffffff 2 800] ------- [2:255 -1:255 1 0] [0x1 1 [2 2] 4.000000] (HELLO)
r 0.003679675 _1_ RTR  --- 0 AODV 44 [0 ffffffff 2 800] ------- [2:255 -1:255 1 0] [0x1 1 [2 2] 4.000000] (HELLO)
r 0.003679679 _3_ RTR  --- 0 AODV 44 [0 ffffffff 2 800] ------- [2:255 -1:255 1 0] [0x1 1 [2 2] 4.000000] (HELLO)
r 0.004646053 _4_ RTR  --- 0 AODV 44 [0 ffffffff 1 800] ------- [1:255 -1:255 1 0] [0x1 1 [1 2] 4.000000] (HELLO)
r 0.004646342 _2_ RTR  --- 0 AODV 44 [0 ffffffff 1 800] ------- [1:255 -1:255 1 0] [0x1 1 [1 2] 4.000000] (HELLO)
r 0.004646342 _0_ RTR  --- 0 AODV 44 [0 ffffffff 1 800] ------- [1:255 -1:255 1 0] [0x1 1 [1 2] 4.000000] (HELLO)
r 0.005612427 _0_ RTR  --- 0 AODV 44 [0 ffffffff 4 800] ------- [4:255 -1:255 1 0] [0x1 1 [4 2] 4.000000] (HELLO)
r 0.005612430 _1_ RTR  --- 0 AODV 44 [0 ffffffff 4 800] ------- [4:255 -1:255 1 0] [0x1 1 [4 2] 4.000000] (HELLO)
r 0.006923949 _3_ RTR  --- 0 AODV 44 [0 ffffffff 6 800] ------- [6:255 -1:255 1 0] [0x1 1 [6 2] 4.000000] (HELLO)
r 0.006923949 _2_ RTR  --- 0 AODV 44 [0 ffffffff 6 800] ------- [6:255 -1:255 1 0] [0x1 1 [6 2] 4.000000] (HELLO)
r 0.006923980 _5_ RTR  --- 0 AODV 44 [0 ffffffff 6 800] ------- [6:255 -1:255 1 0] [0x1 1 [6 2] 4.000000] (HELLO)
s 0.750169789 _0_ RTR  --- 0 AODV 44 [0 0 0 0] ------- [0:255 -1:255 1 0] [0x1 1 [0 6] 4.000000] (HELLO)
r 0.751306163 _4_ RTR  --- 0 AODV 44 [0 ffffffff 0 800] ------- [0:255 -1:255 1 0] [0x1 1 [0 6] 4.000000] (HELLO)
r 0.751306455 _1_ RTR  --- 0 AODV 44 [0 ffffffff 0 800] ------- [0:255 -1:255 1 0] [0x1 1 [0 6] 4.000000] (HELLO)
s 0.757102330 _2_ RTR  --- 0 AODV 44 [0 0 0 0] ------- [2:255 -1:255 1 0] [0x1 1 [2 10] 4.000000] (HELLO)
r 0.758458706 _5_ RTR  --- 0 AODV 44 [0 ffffffff 2 800] ------- [2:255 -1:255 1 0] [0x1 1 [2 10] 4.000000] (HELLO)
r 0.758458799 _6_ RTR  --- 0 AODV 44 [0 ffffffff 2 800] ------- [2:255 -1:255 1 0] [0x1 1 [2 10] 4.000000] (HELLO)
r 0.758458997 _1_ RTR  --- 0 AODV 44 [0 ffffffff 2 800] ------- [2:255 -1:255 1 0] [0x1 1 [2 10] 4.000000] (HELLO)
r 0.758459000 _3_ RTR  --- 0 AODV 44 [0 ffffffff 2 800] ------- [2:255 -1:255 1 0] [0x1 1 [2 10] 4.000000] (HELLO)
s 0.794061336 _3_ RTR  --- 0 AODV 44 [0 0 0 0] ------- [3:255 -1:255 1 0] [0x1 1 [3 8] 4.000000] (HELLO)
r 0.795377713 _5_ RTR  --- 0 AODV 44 [0 ffffffff 3 800] ------- [3:255 -1:255 1 0] [0x1 1 [3 8] 4.000000] (HELLO)
r 0.795377805 _6_ RTR  --- 0 AODV 44 [0 ffffffff 3 800] ------- [3:255 -1:255 1 0] [0x1 1 [3 8] 4.000000] (HELLO)
r 0.795378006 _2_ RTR  --- 0 AODV 44 [0 ffffffff 3 800] ------- [3:255 -1:255 1 0] [0x1 1 [3 8] 4.000000] (HELLO)
s 0.906480886 _6_ RTR  --- 0 AODV 44 [0 0 0 0] ------- [6:255 -1:255 1 0] [0x1 1 [6 8] 4.000000] (HELLO)
r 0.907437355 _3_ RTR  --- 0 AODV 44 [0 ffffffff 6 800] ------- [6:255 -1:255 1 0] [0x1 1 [6 8] 4.000000] (HELLO)
r 0.907437355 _2_ RTR  --- 0 AODV 44 [0 ffffffff 6 800] ------- [6:255 -1:255 1 0] [0x1 1 [6 8] 4.000000] (HELLO)
r 0.907437386 _5_ RTR  --- 0 AODV 44 [0 ffffffff 6 800] ------- [6:255 -1:255 1 0] [0x1 1 [6 8] 4.000000] (HELLO)
s 0.970586691 _4_ RTR  --- 0 AODV 44 [0 0 0 0] ------- [4:255 -1:255 1 0] [0x1 1 [4 6] 4.000000] (HELLO)
r 0.971643065 _0_ RTR  --- 0 AODV 44 [0 ffffffff 4 800] ------- [4:255 -1:255 1 0] [0x1 1 [4 6] 4.000000] (HELLO)
r 0.971643068 _1_ RTR  --- 0 AODV 44 [0 ffffffff 4 800] ------- [4:255 -1:255 1 0] [0x1 1 [4 6] 4.000000] (HELLO)
s 1.000000000 _0_ AGT  --- 0 cbr 1000 [0 0 0 0] ------- [0:0 3:0 32 0] [0] 0 0
r 1.000000000 _0_ RTR  --- 0 cbr 1000 [0 0 0 0] ------- [0:0 3:0 32 0] [0] 0 0
s 1.000000000 _0_ RTR  --- 0 AODV 48 [0 0 0 0] ------- [0:255 -1:255 30 0] [0x2 1 1 [3 0] [0 8]] (REQUEST)
r 1.001228374 _4_ RTR  --- 0 AODV 48 [0 ffffffff 0 800] ------- [0:255 -1:255 30 0] [0x2 1 1 [3 0] [0 8]] (REQUEST)
r 1.001228667 _1_ RTR  --- 0 AODV 48 [0 ffffffff 0 800] ------- [0:255 -1:255 30 0] [0x2 1 1 [3 0] [0 8]] (REQUEST)
s 1.003102027 _4_ RTR  --- 0 AODV 48 [0 ffffffff 0 800] ------- [4:255 -1:255 29 0] [0x2 2 1 [3 0] [0 8]] (REQUEST)
r 1.004270401 _0_ RTR  --- 0 AODV 48 [0 ffffffff 4 800] ------- [4:255 -1:255 29 0] [0x2 2 1 [3 0] [0 8]] (REQUEST)
r 1.004270404 _1_ RTR  --- 0 AODV 48 [0 ffffffff 4 800] ------- [4:255 -1:255 29 0] [0x2 2 1 [3 0] [0 8]] (REQUEST)
s 1.010103102 _1_ RTR  --- 0 AODV 48 [0 ffffffff 0 800] ------- [1:255 -1:255 29 0] [0x2 2 1 [3 0] [0 8]] (REQUEST)
r 1.011631479 _4_ RTR  --- 0 AODV 48 [0 ffffffff 1 800] ------- [1:255 -1:255 29 0] [0x2 2 1 [3 0] [0 8]] (REQUEST)
r 1.011631769 _2_ RTR  --- 0 AODV 48 [0 ffffffff 1 800] ------- [1:255 -1:255 29 0] [0x2 2 1 [3 0] [0 8]] (REQUEST)
r 1.011631769 _0_ RTR  --- 0 AODV 48 [0 ffffffff 1 800] ------- [1:255 -1:255 29 0] [0x2 2 1 [3 0] [0 8]] (REQUEST)
s 1.011739852 _2_ RTR  --- 0 AODV 48 [0 ffffffff 1 800] ------- [2:255 -1:255 28 0] [0x2 3 1 [3 0] [0 8]] (REQUEST)
r 1.013028228 _5_ RTR  --- 0 AODV 48 [0 ffffffff 2 800] ------- [2:255 -1:255 28 0] [0x2 3 1 [3 0] [0 8]] (REQUEST)
r 1.013028321 _6_ RTR  --- 0 AODV 48 [0 ffffffff 2 800] ------- [2:255 -1:255 28 0] [0x2 3 1 [3 0] [0 8]] (REQUEST)
r 1.013028519 _1_ RTR  --- 0 AODV 48 [0 ffffffff 2 800] ------- [2:255 -1:255 28 0] [0x2 3 1 [3 0] [0 8]] (REQUEST)
r 1.013028522 _3_ RTR  --- 0 AODV 48 [0 ffffffff 2 800] ------- [2:255 -1:255 28 0] [0x2 3 1 [3 0] [0 8]] (REQUEST)
s 1.013028522 _3_ RTR  --- 0 AODV 44 [0 0 0 0] ------- [3:255 0:255 30 2] [0x4 1 [3 10] 10.000000] (REPLY)
s 1.014259263 _5_ RTR  --- 0 AODV 48 [0 ffffffff 2 800] ------- [5:255 -1:255 27 0] [0x2 4 1 [3 0] [0 8]] (REQUEST)
r 1.017551212 _2_ RTR  --- 0 AODV 44 [13a 2 3 800] ------- [3:255 0:255 30 2] [0x4 1 [3 10] 10.000000] (REPLY)
f 1.017551212 _2_ RTR  --- 0 AODV 44 [13a 2 3 800] ------- [3:255 0:255 29 1] [0x4 2 [3 10] 10.000000] (REPLY)
r 1.022402879 _1_ RTR  --- 0 AODV 44 [13a 1 2 800] ------- [3:255 0:255 29 1] [0x4 2 [3 10] 10.000000] (REPLY)
f 1.022402879 _1_ RTR  --- 0 AODV 44 [13a 1 2 800] ------- [3:255 0:255 28 0] [0x4 3 [3 10] 10.000000] (REPLY)
r 1.027554546 _0_ RTR  --- 0 AODV 44 [13a 0 1 800] ------- [3:255 0:255 28 0] [0x4 3 [3 10] 10.000000] (REPLY)
s 1.027554546 _0_ RTR  --- 0 cbr 1020 [0 0 0 0] ------- [0:0 3:0 30 1] [0] 0 0
s 1.027940358 _1_ RTR  --- 0 AODV 44 [0 0 0 0] ------- [1:255 -1:255 1 0] [0x1 1 [1 8] 4.000000] (HELLO)
r 1.028975590 _4_ RTR  --- 0 AODV 44 [0 ffffffff 1 800] ------- [1:255 -1:255 1 0] [0x1 1 [1 8] 4.000000] (HELLO)
r 1.028975879 _2_ RTR  --- 0 AODV 44 [0 ffffffff 1 800] ------- [1:255 -1:255 1 0] [0x1 1 [1 8] 4.000000] (HELLO)
r 1.028975879 _0_ RTR  --- 0 AODV 44 [0 ffffffff 1 800] ------- [1:255 -1:255 1 0] [0x1 1 [1 8] 4.000000] (HELLO)
r 1.038567879 _1_ RTR  --- 0 cbr 1020 [13a 1 0 800] ------- [0:0 3:0 30 1] [0] 1 0
f 1.038567879 _1_ RTR  --- 0 cbr 1020 [13a 1 0 800] ------- [0:0 3:0 29 2] [0] 1 0
r 1.048293879 _2_ RTR  --- 0 cbr 1020 [13a 2 1 800] ------- [0:0 3:0 29 2] [0] 2 0
f 1.048293879 _2_ RTR  --- 0 cbr 1020 [13a 2 1 800] ------- [0:0 3:0 28 3] [0] 2 0
r 1.049596604 _2_ RTR  --- 0 AODV 48 [0 ffffffff 5 800] ------- [5:255 -1:255 27 0] [0x2 4 1 [3 0] [0 8]] (REQUEST)
r 1.049596605 _3_ RTR  --- 0 AODV 48 [0 ffffffff 5 800] ------- [5:255 -1:255 27 0] [0x2 4 1 [3 0] [0 8]] (REQUEST)
r 1.049596728 _6_ RTR  --- 0 AODV 48 [0 ffffffff 5 800] ------- [5:255 -1:255 27 0] [0x2 4 1 [3 0] [0 8]] (REQUEST)
r 1.059328614 _3_ AGT  --- 0 cbr 1020 [13a 3 2 800] ------- [0:0 3:0 28 3] [0] 3 0
s 1.080000000 _0_ AGT  --- 1 cbr 1000 [0 0 0 0] ------- [0:0 3:0 32 0] [1] 0 0
r 1.080000000 _0_ RTR  --- 1 cbr 1000 [0 0 0 0] ------- [0:0 3:0 32 0] [1] 0 0
s 1.080000000 _0_ RTR  --- 1 cbr 1020 [0 0 0 0] ------- [0:0 3:0 30 1] [1] 0 0
r 1.089482000 _1_ RTR  --- 1 cbr 1020 [13a 1 0 800] ------- [0:0 3:0 30 1] [1] 1 0
f 1.089482000 _1_ RTR  --- 1 cbr 1020 [13a 1 0 800] ------- [0:0 3:0 29 2] [1] 1 0
r 1.099408000 _2_ RTR  --- 1 cbr 1020 [13a 2 1 800] ------- [0:0 3:0 29 2] [1] 2 0
f 1.099408000 _2_ RTR  --- 1 cbr 1020 [13a 2 1 800] ------- [0:0 3:0 28 3] [1] 2 0
r 1.109134010 _3_ AGT  --- 1 cbr 1020 [13a 3 2 800] ------- [0:0 3:0 28 3] [1] 3 0
s 1.149577727 _5_ RTR  --- 0 AODV 44 [0 0 0 0] ------- [5:255 -1:255 1 0] [0x1 1 [5 8] 4.000000] (HELLO)
r 1.150554102 _2_ RTR  --- 0 AODV 44 [0 ffffffff 5 800] ------- [5:255 -1:255 1 0] [0x1 1 [5 8] 4.000000] (HELLO)
r 1.150554104 _3_ RTR  --- 0 AODV 44 [0 ffffffff 5 800] ------- [5:255 -1:255 1 0] [0x1 1 [5 8] 4.000000] (HELLO)
r 1.150554227 _6_ RTR  --- 0 AODV 44 [0 ffffffff 5 800] ------- [5:255 -1:255 1 0] [0x1 1 [5 8] 4.000000] (HELLO)
s 1.160000000 _0_ AGT  --- 2 cbr 1000 [0 0 0 0] ------- [0:0 3:0 32 0] [2] 0 0
r 1.160000000 _0_ RTR  --- 2 cbr 1000 [0 0 0 0] ------- [0:0 3:0 32 0] [2] 0 0
s 1.160000000 _0_ RTR  --- 2 cbr 1020 [0 0 0 0] ------- [0:0 3:0 30 1] [2] 0 0
r 1.169522000 _1_ RTR  --- 2 cbr 1020 [13a 1 0 800] ------- [0:0 3:0 30 1] [2] 1 0
f 1.169522000 _1_ RTR  --- 2 cbr 1020 [13a 1 0 800] ------- [0:0 3:0 29 2] [2] 1 0
r 1.179788000 _2_ RTR  --- 2 cbr 1020 [13a 2 1 800] ------- [0:0 3:0 29 2] [2] 2 0
f 1.179788000 _2_ RTR  --- 2 cbr 1020 [13a 2 1 800] ------- [0:0 3:0 28 3] [2] 2 0
r 1.189994010 _3_ AGT  --- 2 cbr 1020 [13a 3 2 800] ------- [0:0 3:0 28 3] [2] 3 0
s 1.240000000 _0_ AGT  --- 3 cbr 1000 [0 0 0 0] ------- [0:0 3:0 32 0] [3] 0 0
r 1.240000000 _0_ RTR  --- 3 cbr 1000 [0 0 0 0] ------- [0:0 3:0 32 0] [3] 0 0
s 1.240000000 _0_ RTR  --- 3 cbr 1020 [0 0 0 0] ------- [0:0 3:0 30 1] [3] 0 0
r 1.249702000 _1_ RTR  --- 3 cbr 1020 [13a 1 0 800] ------- [0:0 3:0 30 1] [3] 1 0
f 1.249702000 _1_ RTR  --- 3 cbr 1020 [13a 1 0 800] ------- [0:0 3:0 29 2] [3] 1 0
r 1.259708000 _2_ RTR  --- 3 cbr 1020 [13a 2 1 800] ------- [0:0 3:0 29 2] [3] 2 0
f 1.259708000 _2_ RTR  --- 3 cbr 1020 [13a 2 1 800] ------- [0:0 3:0 28 3] [3] 2 0
r 1.269954010 _3_ AGT  --- 3 cbr 1020 [13a 3 2 800] ------- [0:0 3:0 28 3] [3] 3 0
s 1.320000000 _0_ AGT  --- 4 cbr 1000 [0 0 0 0] ------- [0:0 3:0 32 0] [4] 0 0
r 1.320000000 _0_ RTR  --- 4 cbr 1000 [0 0 0 0] ------- [0:0 3:0 32 0] [4] 0 0
s 1.320000000 _0_ RTR  --- 4 cbr 1020 [0 0 0 0] ------- [0:0 3:0 30 1] [4] 0 0
r 1.329562000 _1_ RTR  --- 4 cbr 1020 [13a 1 0 800] ------- [0:0 3:0 30 1] [4] 1 0
f 1.329562000 _1_ RTR  --- 4 cbr 1020 [13a 1 0 800] ------- [0:0 3:0 29 2] [4] 1 0
r 1.339668000 _2_ RTR  --- 4 cbr 1020 [13a 2 1 800] ------- [0:0 3:0 29 2] [4] 2 0
f 1.339668000 _2_ RTR  --- 4 cbr 1020 [13a 2 1 800] ------- [0:0 3:0 28 3] [4] 2 0
r 1.349454010 _3_ AGT  --- 4 cbr 1020 [13a 3 2 800] ------- [0:0 3:0 28 3] [4] 3 0
s 1.400000000 _0_ AGT  --- 5 cbr 1000 [0 0 0 0] ------- [0:0 3:0 32 0] [5] 0 0
r 1.400000000 _0_ RTR  --- 5 cbr 1000 [0 0 0 0] ------- [0:0 3:0 32 0] [5] 0 0
s 1.400000000 _0_ RTR  --- 5 cbr 1020 [0 0 0 0] ------- [0:0 3:0 30 1] [5] 0 0
r 1.409402000 _1_ RTR  --- 5 cbr 1020 [13a 1 0 800] ------- [0:0 3:0 30 1] [5] 1 0
f 1.409402000 _1_ RTR  --- 5 cbr 1020 [13a 1 0 800] ------- [0:0 3:0 29 2] [5] 1 0
r 1.419208000 _2_ RTR  --- 5 cbr 1020 [13a 2 1 800] ------- [0:0 3:0 29 2] [5] 2 0
f 1.419208000 _2_ RTR  --- 5 cbr 1020 [13a 2 1 800] ------- [0:0 3:0 28 3] [5] 2 0
r 1.429194010 _3_ AGT  --- 5 cbr 1020 [13a 3 2 800] ------- [0:0 3:0 28 3] [5] 3 0
s 1.480000000 _0_ AGT  --- 6 cbr 1000 [0 0 0 0] ------- [0:0 3:0 32 0] [6] 0 0
r 1.480000000 _0_ RTR  --- 6 cbr 1000 [0 0 0 0] ------- [0:0 3:0 32 0] [6] 0 0
s 1.480000000 _0_ RTR  --- 6 cbr 1020 [0 0 0 0] ------- [0:0 3:0 30 1] [6] 0 0
r 1.489722000 _1_ RTR  --- 6 cbr 1020 [13a 1 0 800] ------- [0:0 3:0 30 1] [6] 1 0
f 1.489722000 _1_ RTR  --- 6 cbr 1020 [13a 1 0 800] ------- [0:0 3:0 29 2] [6] 1 0
r 1.499548000 _2_ RTR  --- 6 cbr 1020 [13a 2 1 800] ------- [0:0 3:0 29 2] [6] 2 0
f 1.499548000 _2_ RTR  --- 6 cbr 1020 [13a 2 1 800] ------- [0:0 3:0 28 3] [6] 2 0
r 1.509474010 _3_ AGT  --- 6 cbr 1020 [13a 3 2 800] ------- [0:0 3:0 28 3] [6] 3 0
s 1.560000000 _0_ AGT  --- 7 cbr 1000 [0 0 0 0] ------- [0:0 3:0 32 0] [7] 0 0
r 1.560000000 _0_ RTR  --- 7 cbr 1000 [0 0 0 0] ------- [0:0 3:0 32 0] [7] 0 0
s 1.560000000 _0_ RTR  --- 7 cbr 1020 [0 0 0 0] ------- [0:0 3:0 30 1] [7] 0 0
r 1.569462000 _1_ RTR  --- 7 cbr 1020 [13a 1 0 800] ------- [0:0 3:0 30 1] [7] 1 0
f 1.569462000 _1_ RTR  --- 7 cbr 1020 [13a 1 0 800] ------- [0:0 3:0 29 2] [7] 1 0
r 1.579648000 _2_ RTR  --- 7 cbr 1020 [13a 2 1 800] ------- [0:0 3:0 29 2] [7] 2 0
f 1.579648000 _2_ RTR  --- 7 cbr 1020 [13a 2 1 800] ------- [0:0 3:0 28 3] [7] 2 0
r 1.589734010 _3_ AGT  --- 7 cbr 1020 [13a 3 2 800] ------- [0:0 3:0 28 3] [7] 3 0
s 1.640000000 _0_ AGT  --- 8 cbr 1000 [0 0 0 0] ------- [0:0 3:0 32 0] [8] 0 0
r 1.640000000 _0_ RTR  --- 8 cbr 1000 [0 0 0 0] ------- [0:0 3:0 32 0] [8] 0 0
s 1.640000000 _0_ RTR  --- 8 cbr 1020 [0 0 0 0] ------- [0:0 3:0 30 1] [8] 0 0
r 1.649462000 _1_ RTR  --- 8 cbr 1020 [13a 1 0 800] ------- [0:0 3:0 30 1] [8] 1 0
f 1.649462000 _1_ RTR  --- 8 cbr 1020 [13a 1 0 800] ------- [0:0 3:0 29 2] [8] 1 0
r 1.659388000 _2_ RTR  --- 8 cbr 1020 [13a 2 1 800] ------- [0:0 3:0 29 2] [8] 2 0
f 1.659388000 _2_ RTR  --- 8 cbr 1020 [13a 2 1 800] ------- [0:0 3:0 28 3] [8] 2 0
r 1.669074010 _3_ AGT  --- 8 cbr 1020 [13a 3 2 800] ------- [0:0 3:0 28 3] [8] 3 0
s 1.674540301 _0_ RTR  --- 0 AODV 44 [0 0 0 0] ------- [0:255 -1:255 1 0] [0x1 1 [0 8] 4.000000] (HELLO)
r 1.675936676 _4_ RTR  --- 0 AODV 44 [0 ffffffff 0 800] ------- [0:255 -1:255 1 0] [0x1 1 [0 8] 4.000000] (HELLO)
r 1.675936968 _1_ RTR  --- 0 AODV 44 [0 ffffffff 0 800] ------- [0:255 -1:255 1 0] [0x1 1 [0 8] 4.000000] (HELLO)
s 1.720000000 _0_ AGT  --- 9 cbr 1000 [0 0 0 0] ------- [0:0 3:0 32 0] [9] 0 0
r 1.720000000 _0_ RTR  --- 9 cbr 1000 [0 0 0 0] ------- [0:0 3:0 32 0] [9] 0 0
s 1.720000000 _0_ RTR  --- 9 cbr 1020 [0 0 0 0] ------- [0:0 3:0 30 1] [9] 0 0
r 1.729582000 _1_ RTR  --- 9 cbr 1020 [13a 1 0 800] ------- [0:0 3:0 30 1] [9] 1 0
f 1.729582000 _1_ RTR  --- 9 cbr 1020 [13a 1 0 800] ------- [0:0 3:0 29 2] [9] 1 0
r 1.739788000 _2_ RTR  --- 9 cbr 1020 [13a 2 1 800] ------- [0:0 3:0 29 2] [9] 2 0
f 1.739788000 _2_ RTR  --- 9 cbr 1020 [13a 2 1 800] ------- [0:0 3:0 28 3] [9] 2 0
r 1.749594010 _3_ AGT  --- 9 cbr 1020 [13a 3 2 800] ------- [0:0 3:0 28 3] [9] 3 0
s 1.766426728 _2_ RTR  --- 0 AODV 44 [0 0 0 0] ------- [2:255 -1:255 1 0] [0x1 1 [2 10] 4.000000] (HELLO)
r 1.767343103 _5_ RTR  --- 0 AODV 44 [0 ffffffff 2 800] ------- [2:255 -1:255 1 0] [0x1 1 [2 10] 4.000000] (HELLO)
r 1.767343197 _6_ RTR  --- 0 AODV 44 [0 ffffffff 2 800] ------- [2:255 -1:255 1 0] [0x1 1 [2 10] 4.000000] (HELLO)
r 1.767343394 _1_ RTR  --- 0 AODV 44 [0 ffffffff 2 800] ------- [2:255 -1:255 1 0] [0x1 1 [2 10] 4.000000] (HELLO)
r 1.767343398 _3_ RTR  --- 0 AODV 44 [0 ffffffff 2 800] ------- [2:255 -1:255 1 0] [0x1 1 [2 10] 4.000000] (HELLO)
s 1.777093700 _6_ RTR  --- 0 AODV 44 [0 0 0 0] ------- [6:255 -1:255 1 0] [0x1 1 [6 8] 4.000000] (HELLO)
r 1.778590169 _3_ RTR  --- 0 AODV 44 [0 ffffffff 6 800] ------- [6:255 -1:255 1 0] [0x1 1 [6 8] 4.000000] (HELLO)
r 1.778590169 _2_ RTR  --- 0 AODV 44 [0 ffffffff 6 800] ------- [6:255 -1:255 1 0] [0x1 1 [6 8] 4.000000] (HELLO)
r 1.778590200 _5_ RTR  --- 0 AODV 44 [0 ffffffff 6 800] ------- [6:255 -1:255 1 0] [0x1 1 [6 8] 4.000000] (HELLO)
s 1.800000000 _0_ AGT  --- 10 cbr 1000 [0 0 0 0] ------- [0:0 3:0 32 0] [10] 0 0
r 1.800000000 _0_ RTR  --- 10 cbr 1000 [0 0 0 0] ------- [0:0 3:0 32 0] [10] 0 0
s 1.800000000 _0_ RTR  --- 10 cbr 1020 [0 0 0 0] ------- [0:0 3:0 30 1] [10] 0 0
r 1.809622000 _1_ RTR  --- 10 cbr 1020 [13a 1 0 800] ------- [0:0 3:0 30 1] [10] 1 0
f 1.809622000 _1_ RTR  --- 10 cbr 1020 [13a 1 0 800] ------- [0:0 3:0 29 2] [10] 1 0
r 1.819808000 _2_ RTR  --- 10 cbr 1020 [13a 2 1 800] ------- [0:0 3:0 29 2] [10] 2 0
f 1.819808000 _2_ RTR  --- 10 cbr 1020 [13a 2 1 800] ------- [0:0 3:0 28 3] [10] 2 0
r 1.829714010 _3_ AGT  --- 10 cbr 1020 [13a 3 2 800] ------- [0:0 3:0 28 3] [10] 3 0
s 1.880000000 _0_ AGT  --- 11 cbr 1000 [0 0 0 0] ------- [0:0 3:0 32 0] [11] 0 0
r 1.880000000 _0_ RTR  --- 11 cbr 1000 [0 0 0 0] ------- [0:0 3:0 32 0] [11] 0 0
s 1.880000000 _0_ RTR  --- 11 cbr 1020 [0 0 0 0] ------- [0:0 3:0 30 1] [11] 0 0
r 1.889582000 _1_ RTR  --- 11 cbr 1020 [13a 1 0 800] ------- [0:0 3:0 30 1] [11] 1 0
f 1.889582000 _1_ RTR  --- 11 cbr 1020 [13a 1 0 800] ------- [0:0 3:0 29 2] [11] 1 0
r 1.899248000 _2_ RTR  --- 11 cbr 1020 [13a 2 1 800] ------- [0:0 3:0 29 2] [11] 2 0
f 1.899248000 _2_ RTR  --- 11 cbr 1020 [13a 2 1 800] ------- [0:0 3:0 28 3] [11] 2 0
r 1.909414010 _3_ AGT  --- 11 cbr 1020 [13a 3 2 800] ------- [0:0 3:0 28 3] [11] 3 0
s 1.960000000 _0_ AGT  --- 12 cbr 1000 [0 0 0 0] ------- [0:0 3:0 32 0] [12] 0 0
r 1.960000000 _0_ RTR  --- 12 cbr 1000 [0 0 0 0] ------- [0:0 3:0 32 0] [12] 0 0
s 1.960000000 _0_ RTR  --- 12 cbr 1020 [0 0 0 0] ------- [0:0 3:0 30 1] [12] 0 0
r 1.969522000 _1_ RTR  --- 12 cbr 1020 [13a 1 0 800] ------- [0:0 3:0 30 1] [12] 1 0
f 1.969522000 _1_ RTR  --- 12 cbr 1020 [13a 1 0 800] ------- [0:0 3:0 29 2] [12] 1 0
s 1.975094976 _3_ RTR  --- 0 AODV 44 [0 0 0 0] ------- [3:255 -1:255 1 0] [0x1 1 [3 10] 4.000000] (HELLO)
r 1.979548000 _2_ RTR  --- 12 cbr 1020 [13a 2 1 800] ------- [0:0 3:0 29 2] [12] 2 0
f 1.979548000 _2_ RTR  --- 12 cbr 1020 [13a 2 1 800] ------- [0:0 3:0 28 3] [12] 2 0
r 1.989354010 _3_ AGT  --- 12 cbr 1020 [13a 3 2 800] ------- [0:0 3:0 28 3] [12] 3 0
r 1.991054387 _5_ RTR  --- 0 AODV 44 [0 ffffffff 3 800] ------- [3:255 -1:255 1 0] [0x1 1 [3 10] 4.000000] (HELLO)
r 1.991054479 _6_ RTR  --- 0 AODV 44 [0 ffffffff 3 800] ------- [3:255 -1:255 1 0] [0x1 1 [3 10] 4.000000] (HELLO)
r 1.991054680 _2_ RTR  --- 0 AODV 44 [0 ffffffff 3 800] ------- [3:255 -1:255 1 0] [0x1 1 [3 10] 4.000000] (HELLO)
s 2.040000000 _0_ AGT  --- 13 cbr 1000 [0 0 0 0] ------- [0:0 3:0 32 0] [13] 0 0
r 2.040000000 _0_ RTR  --- 13 cbr 1000 [0 0 0 0] ------- [0:0 3:0 32 0] [13] 0 0
s 2.040000000 _0_ RTR  --- 13 cbr 1020 [0 0 0 0] ------- [0:0 3:0 30 1] [13] 0 0
r 2.049882000 _1_ RTR  --- 13 cbr 1020 [13a 1 0 800] ------- [0:0 3:0 30 1] [13] 1 0
f 2.049882000 _1_ RTR  --- 13 cbr 1020 [13a 1 0 800] ------- [0:0 3:0 29 2] [13] 1 0
r 2.059908000 _2_ RTR  --- 13 cbr 1020 [13a 2 1 800] ------- [0:0 3:0 29 2] [13] 2 0
f 2.059908000 _2_ RTR  --- 13 cbr 1020 [13a 2 1 800] ------- [0:0 3:0 28 3] [13] 2 0
r 2.069654010 _3_ AGT  --- 13 cbr 1020 [13a 3 2 800] ------- [0:0 3:0 28 3] [13] 3 0
s 2.101702637 _4_ RTR  --- 0 AODV 44 [0 0 0 0] ------- [4:255 -1:255 1 0] [0x1 1 [4 6] 4.000000] (HELLO)
r 2.102939012 _0_ RTR  --- 0 AODV 44 [0 ffffffff 4 800] ------- [4:255 -1:255 1 0] [0x1 1 [4 6] 4.000000] (HELLO)
r 2.102939015 _1_ RTR  --- 0 AODV 44 [0 ffffffff 4 800] ------- [4:255 -1:255 1 0] [0x1 1 [4 6] 4.000000] (HELLO)
s 2.120000000 _0_ AGT  --- 14 cbr 1000 [0 0 0 0] ------- [0:0 3:0 32 0] [14] 0 0
r 2.120000000 _0_ RTR  --- 14 cbr 1000 [0 0 0 0] ------- [0:0 3:0 32 0] [14] 0 0
s 2.120000000 _0_ RTR  --- 14 cbr 1020 [0 0 0 0] ------- [0:0 3:0 30 1] [14] 0 0
r 2.129442000 _1_ RTR  --- 14 cbr 1020 [13a 1 0 800] ------- [0:0 3:0 30 1] [14] 1 0
f 2.129442000 _1_ RTR  --- 14 cbr 1020 [13a 1 0 800] ------- [0:0 3:0 29 2] [14] 1 0
r 2.139628000 _2_ RTR  --- 14 cbr 1020 [13a 2 1 800] ------- [0:0 3:0 29 2] [14] 2 0
f 2.139628000 _2_ RTR  --- 14 cbr 1020 [13a 2 1 800] ------- [0:0 3:0 28 3] [14] 2 0
r 2.149374010 _3_ AGT  --- 14 cbr 1020 [13a 3 2 800] ------- [0:0 3:0 28 3] [14] 3 0
s 2.192633967 _5_ RTR  --- 0 AODV 44 [0 0 0 0] ------- [5:255 -1:255 1 0] [0x1 1 [5 8] 4.000000] (HELLO)
r 2.193870343 _2_ RTR  --- 0 AODV 44 [0 ffffffff 5 800] ------- [5:255 -1:255 1 0] [0x1 1 [5 8] 4.000000] (HELLO)
r 2.193870344 _3_ RTR  --- 0 AODV 44 [0 ffffffff 5 800] ------- [5:255 -1:255 1 0] [0x1 1 [5 8] 4.000000] (HELLO)
r 2.193870467 _6_ RTR  --- 0 AODV 44 [0 ffffffff 5 800] ------- [5:255 -1:255 1 0] [0x1 1 [5 8] 4.000000] (HELLO)
s 2.200000000 _0_ AGT  --- 15 cbr 1000 [0 0 0 0] ------- [0:0 3:0 32 0] [15] 0 0
r 2.200000000 _0_ RTR  --- 15 cbr 1000 [0 0 0 0] ------- [0:0 3:0 32 0] [15] 0 0
s 2.200000000 _0_ RTR  --- 15 cbr 1020 [0 0 0 0] ------- [0:0 3:0 30 1] [15] 0 0
r 2.209462000 _1_ RTR  --- 15 cbr 1020 [13a 1 0 800] ------- [0:0 3:0 30 1] [15] 1 0
f 2.209462000 _1_ RTR  --- 15 cbr 1020 [13a 1 0 800] ------- [0:0 3:0 29 2] [15] 1 0
r 2.219428000 _2_ RTR  --- 15 cbr 1020 [13a 2 1 800] ------- [0:0 3:0 29 2] [15] 2 0
f 2.219428000 _2_ RTR  --- 15 cbr 1020 [13a 2 1 800] ------- [0:0 3:0 28 3] [15] 2 0
r 2.229214010 _3_ AGT  --- 15 cbr 1020 [13a 3 2 800] ------- [0:0 3:0 28 3] [15] 3 0
s 2.265943708 _1_ RTR  --- 0 AODV 44 [0 0 0 0] ------- [1:255 -1:255 1 0] [0x1 1 [1 8] 4.000000] (HELLO)
r 2.266940085 _4_ RTR  --- 0 AODV 44 [0 ffffffff 1 800] ------- [1:255 -1:255 1 0] [0x1 1 [1 8] 4.000000] (HELLO)
r 2.266940375 _2_ RTR  --- 0 AODV 44 [0 ffffffff 1 800] ------- [1:255 -1:255 1 0] [0x1 1 [1 8] 4.000000] (HELLO)
r 2.266940375 _0_ RTR  --- 0 AODV 44 [0 ffffffff 1 800] ------- [1:255 -1:255 1 0] [0x1 1 [1 8] 4.000000] (HELLO)
s 2.280000000 _0_ AGT  --- 16 cbr 1000 [0 0 0 0] ------- [0:0 3:0 32 0] [16] 0 0
r 2.280000000 _0_ RTR  --- 16 cbr 1000 [0 0 0 0] ------- [0:0 3:0 32 0] [16] 0 0
s 2.280000000 _0_ RTR  --- 16 cbr 1020 [0 0 0 0] ------- [0:0 3:0 30 1] [16] 0 0
r 2.289862000 _1_ RTR  --- 16 cbr 1020 [13a 1 0 800] ------- [0:0 3:0 30 1] [16] 1 0
f 2.289862000 _1_ RTR  --- 16 cbr 1020 [13a 1 0 800] ------- [0:0 3:0 29 2] [16] 1 0
r 2.299868000 _2_ RTR  --- 16 cbr 1020 [13a 2 1 800] ------- [0:0 3:0 29 2] [16] 2 0
f 2.299868000 _2_ RTR  --- 16 cbr 1020 [13a 2 1 800] ------- [0:0 3:0 28 3] [16] 2 0
r 2.309894010 _3_ AGT  --- 16 cbr 1020 [13a 3 2 800] ------- [0:0 3:0 28 3] [16] 3 0
s 2.360000000 _0_ AGT  --- 17 cbr 1000 [0 0 0 0] ------- [0:0 3:0 32 0] [17] 0 0
r 2.360000000 _0_ RTR  --- 17 cbr 1000 [0 0 0 0] ------- [0:0 3:0 32 0] [17] 0 0
s 2.360000000 _0_ RTR  --- 17 cbr 1020 [0 0 0 0] ------- [0:0 3:0 30 1] [17] 0 0
r 2.369922000 _1_ RTR  --- 17 cbr 1020 [13a 1 0 800] ------- [0:0 3:0 30 1] [17] 1 0
f 2.369922000 _1_ RTR  --- 17 cbr 1020 [13a 1 0 800] ------- [0:0 3:0 29 2] [17] 1 0
r 2.379628000 _2_ RTR  --- 17 cbr 1020 [13a 2 1 800] ------- [0:0 3:0 29 2] [17] 2 0
f 2.379628000 _2_ RTR  --- 17 cbr 1020 [13a 2 1 800] ------- [0:0 3:0 28 3] [17] 2 0
r 2.389754010 _3_ AGT  --- 17 cbr 1020 [13a 3 2 800] ------- [0:0 3:0 28 3] [17] 3 0
s 2.440000000 _0_ AGT  --- 18 cbr 1000 [0 0 0 0] ------- [0:0 3:0 32 0] [18] 0 0
r 2.440000000 _0_ RTR  --- 18 cbr 1000 [0 0 0 0] ------- [0:0 3:0 32 0] [18] 0 0
s 2.440000000 _0_ RTR  --- 18 cbr 1020 [0 0 0 0] ------- [0:0 3:0 30 1] [18] 0 0
r 2.449722000 _1_ RTR  --- 18 cbr 1020 [13a 1 0 800] ------- [0:0 3:0 30 1] [18] 1 0
f 2.449722000 _1_ RTR  --- 18 cbr 1020 [13a 1 0 800] ------- [0:0 3:0 29 2] [18] 1 0
r 2.459668000 _2_ RTR  --- 18 cbr 1020 [13a 2 1 800] ------- [0:0 3:0 29 2] [18] 2 0
f 2.459668000 _2_ RTR  --- 18 cbr 1020 [13a 2 1 800] ------- [0:0 3:0 28 3] [18] 2 0
r 2.469594010 _3_ AGT  --- 18 cbr 1020 [13a 3 2 800] ------- [0:0 3:0 28 3] [18] 3 0
s 2.520000000 _0_ AGT  --- 19 cbr 1000 [0 0 0 0] ------- [0:0 3:0 32 0] [19] 0 0
r 2.520000000 _0_ RTR  --- 19 cbr 1000 [0 0 0 0] ------- [0:0 3:0 32 0] [19] 0 0
s 2.520000000 _0_ RTR  --- 19 cbr 1020 [0 0 0 0] ------- [0:0 3:0 30 1] [19] 0 0
r 2.529562000 _1_ RTR  --- 19 cbr 1020 [13a 1 0 800] ------- [0:0 3:0 30 1] [19] 1 0
f 2.529562000 _1_ RTR  --- 19 cbr 1020 [13a 1 0 800] ------- [0:0 3:0 29 2] [19] 1 0
r 2.539568000 _2_ RTR  --- 19 cbr 1020 [13a 2 1 800] ------- [0:0 3:0 29 2] [19] 2 0
f 2.539568000 _2_ RTR  --- 19 cbr 1020 [13a 2 1 800] ------- [0:0 3:0 28 3] [19] 2 0
r 2.549334010 _3_ AGT  --- 19 cbr 1020 [13a 3 2 800] ------- [0:0 3:0 28 3] [19] 3 0
s 2.600000000 _0_ AGT  --- 20 cbr 1000 [0 0 0 0] ------- [0:0 3:0 32 0] [20] 0 0
r 2.600000000 _0_ RTR  --- 20 cbr 1000 [0 0 0 0] ------- [0:0 3:0 32 0] [20] 0 0
s 2.600000000 _0_ RTR  --- 20 cbr 1020 [0 0 0 0] ------- [0:0 3:0 30 1] [20] 0 0
r 2.609862000 _1_ RTR  --- 20 cbr 1020 [13a 1 0 800] ------- [0:0 3:0 30 1] [20] 1 0
f 2.609862000 _1_ RTR  --- 20 cbr 1020 [13a 1 0 800] ------- [0:0 3:0 29 2] [20] 1 0
r 2.619788000 _2_ RTR  --- 20 cbr 1020 [13a 2 1 800] ------- [0:0 3:0 29 2] [20] 2 0
f 2.619788000 _2_ RTR  --- 20 cbr 1020 [13a 2 1 800] ------- [0:0 3:0 28 3] [20] 2 0
r 2.629874010 _3_ AGT  --- 20 cbr 1020 [13a 3 2 800] ------- [0:0 3:0 28 3] [20] 3 0
s 2.680000000 _0_ AGT  --- 21 cbr 1000 [0 0 0 0] ------- [0:0 3:0 32 0] [21] 0 0
r 2.680000000 _0_ RTR  --- 21 cbr 1000 [0 0 0 0] ------- [0:0 3:0 32 0] [21] 0 0
s 2.680000000 _0_ RTR  --- 21 cbr 1020 [0 0 0 0] ------- [0:0 3:0 30 1] [21] 0 0
r 2.689802000 _1_ RTR  --- 21 cbr 1020 [13a 1 0 800] ------- [0:0 3:0 30 1] [21] 1 0
f 2.689802000 _1_ RTR  --- 21 cbr 1020 [13a 1 0 800] ------- [0:0 3:0 29 2] [21] 1 0
r 2.699568000 _2_ RTR  --- 21 cbr 1020 [13a 2 1 800] ------- [0:0 3:0 29 2] [21] 2 0
f 2.699568000 _2_ RTR  --- 21 cbr 1020 [13a 2 1 800] ------- [0:0 3:0 28 3] [21] 2 0
r 2.709754010 _3_ AGT  --- 21 cbr 1020 [13a 3 2 800] ------- [0:0 3:0 28 3] [21] 3 0
s 2.760000000 _0_ AGT  --- 22 cbr 1000 [0 0 0 0] ------- [0:0 3:0 32 0] [22] 0 0
r 2.760000000 _0_ RTR  --- 22 cbr 1000 [0 0 0 0] ------- [0:0 3:0 32 0] [22] 0 0
s 2.760000000 _0_ RTR  --- 22 cbr 1020 [0 0 0 0] ------- [0:0 3:0 30 1] [22] 0 0
r 2.770002000 _1_ RTR  --- 22 cbr 1020 [13a 1 0 800] ------- [0:0 3:0 30 1] [22] 1 0
f 2.770002000 _1_ RTR  --- 22 cbr 1020 [13a 1 0 800] ------- [0:0 3:0 29 2] [22] 1 0
r 2.780248000 _2_ RTR  --- 22 cbr 1020 [13a 2 1 800] ------- [0:0 3:0 29 2] [22] 2 0
f 2.780248000 _2_ RTR  --- 22 cbr 1020 [13a 2 1 800] ------- [0:0 3:0 28 3] [22] 2 0
r 2.789934010 _3_ AGT  --- 22 cbr 1020 [13a 3 2 800] ------- [0:0 3:0 28 3] [22] 3 0
s 2.805677344 _2_ RTR  --- 0 AODV 44 [0 0 0 0] ------- [2:255 -1:255 1 0] [0x1 1 [2 10] 4.000000] (HELLO)
r 2.807173720 _5_ RTR  --- 0 AODV 44 [0 ffffffff 2 800] ------- [2:255 -1:255 1 0] [0x1 1 [2 10] 4.000000] (HELLO)
r 2.807173813 _6_ RTR  --- 0 AODV 44 [0 ffffffff 2 800] ------- [2:255 -1:255 1 0] [0x1 1 [2 10] 4.000000] (HELLO)
r 2.807174011 _1_ RTR  --- 0 AODV 44 [0 ffffffff 2 800] ------- [2:255 -1:255 1 0] [0x1 1 [2 10] 4.000000] (HELLO)
r 2.807174014 _3_ RTR  --- 0 AODV 44 [0 ffffffff 2 800] ------- [2:255 -1:255 1 0] [0x1 1 [2 10] 4.000000] (HELLO)
s 2.840000000 _0_ AGT  --- 23 cbr 1000 [0 0 0 0] ------- [0:0 3:0 32 0] [23] 0 0
r 2.840000000 _0_ RTR  --- 23 cbr 1000 [0 0 0 0] ------- [0:0 3:0 32 0] [23] 0 0
s 2.840000000 _0_ RTR  --- 23 cbr 1020 [0 0 0 0] ------- [0:0 3:0 30 1] [23] 0 0
r 2.849542000 _1_ RTR  --- 23 cbr 1020 [13a 1 0 800] ------- [0:0 3:0 30 1] [23] 1 0
f 2.849542000 _1_ RTR  --- 23 cbr 1020 [13a 1 0 800] ------- [0:0 3:0 29 2] [23] 1 0
r 2.859428000 _2_ RTR  --- 23 cbr 1020 [13a 2 1 800] ------- [0:0 3:0 29 2] [23] 2 0
f 2.859428000 _2_ RTR  --- 23 cbr 1020 [13a 2 1 800] ------- [0:0 3:0 28 3] [23] 2 0
r 2.869534010 _3_ AGT  --- 23 cbr 1020 [13a 3 2 800] ------- [0:0 3:0 28 3] [23] 3 0
s 2.872940734 _0_ RTR  --- 0 AODV 44 [0 0 0 0] ------- [0:255 -1:255 1 0] [0x1 1 [0 8] 4.000000] (HELLO)
r 2.874097108 _4_ RTR  --- 0 AODV 44 [0 ffffffff 0 800] ------- [0:255 -1:255 1 0] [0x1 1 [0 8] 4.000000] (HELLO)
r 2.874097400 _1_ RTR  --- 0 AODV 44 [0 ffffffff 0 800] ------- [0:255 -1:255 1 0] [0x1 1 [0 8] 4.000000] (HELLO)
s 2.920000000 _0_ AGT  --- 24 cbr 1000 [0 0 0 0] ------- [0:0 3:0 32 0] [24] 0 0
r 2.920000000 _0_ RTR  --- 24 cbr 1000 [0 0 0 0] ------- [0:0 3:0 32 0] [24] 0 0
s 2.920000000 _0_ RTR  --- 24 cbr 1020 [0 0 0 0] ------- [0:0 3:0 30 1] [24] 0 0
r 2.929682000 _1_ RTR  --- 24 cbr 1020 [13a 1 0 800] ------- [0:0 3:0 30 1] [24] 1 0
f 2.929682000 _1_ RTR  --- 24 cbr 1020 [13a 1 0 800] ------- [0:0 3:0 29 2] [24] 1 0
r 2.939948000 _2_ RTR  --- 24 cbr 1020 [13a 2 1 800] ------- [0:0 3:0 29 2] [24] 2 0
f 2.939948000 _2_ RTR  --- 24 cbr 1020 [13a 2 1 800] ------- [0:0 3:0 28 3] [24] 2 0
s 2.942214352 _6_ RTR  --- 0 AODV 44 [0 0 0 0] ------- [6:255 -1:255 1 0] [0x1 1 [6 8] 4.000000] (HELLO)
r 2.950174010 _3_ AGT  --- 24 cbr 1020 [13a 3 2 800] ------- [0:0 3:0 28 3] [24] 3 0
r 2.951814948 _3_ RTR  --- 0 AODV 44 [0 ffffffff 6 800] ------- [6:255 -1:255 1 0] [0x1 1 [6 8] 4.000000] (HELLO)
r 2.951814948 _2_ RTR  --- 0 AODV 44 [0 ffffffff 6 800] ------- [6:255 -1:255 1 0] [0x1 1 [6 8] 4.000000] (HELLO)
r 2.951814979 _5_ RTR  --- 0 AODV 44 [0 ffffffff 6 800] ------- [6:255 -1:255 1 0] [0x1 1 [6 8] 4.000000] (HELLO)
s 3.000000000 _0_ AGT  --- 25 cbr 1000 [0 0 0 0] ------- [0:0 3:0 32 0] [25] 0 0
r 3.000000000 _0_ RTR  --- 25 cbr 1000 [0 0 0 0] ------- [0:0 3:0 32 0] [25] 0 0
s 3.000000000 _0_ RTR  --- 25 cbr 1020 [0 0 0 0] ------- [0:0 3:0 30 1] [25] 0 0
s 3.002341872 _5_ RTR  --- 0 AODV 44 [0 0 0 0] ------- [5:255 -1:255 1 0] [0x1 1 [5 8] 4.000000] (HELLO)