s 0.000000000 _0_ RTR  --- 0 AODV 44 [0 0 0 0] ------- [0:255 -1:255 1 0] [0x1 1 [0 2] 4.000000] (HELLO)
s 0.000000000 _1_ RTR  --- 0 AODV 44 [0 0 0 0] ------- [1:255 -1:255 1 0] [0x1 1 [1 2] 4.000000] (HELLO)
s 0.000000000 _2_ RTR  --- 0 AODV 44 [0 0 0 0] ------- [2:255 -1:255 1 0] [0x1 1 [2 2] 4.000000] (HELLO)
s 0.000000000 _3_ RTR  --- 0 AODV 44 [0 0 0 0] ------- [3:255 -1:255 1 0] [0x1 1 [3 2] 4.000000] (HELLO)
s 0.000000000 _4_ RTR  --- 0 AODV 44 [0 0 0 0] ------- [4:255 -1:255 1 0] [0x1 1 [4 2] 4.000000] (HELLO)
s 0.000000000 _5_ RTR  --- 0 AODV 44 [0 0 0 0] ------- [5:255 -1:255 1 0] [0x1 1 [5 2] 4.000000] (HELLO)
s 0.000000000 _6_ RTR  --- 0 AODV 44 [0 0 0 0] ------- [6:255 -1:255 1 0] [0x1 1 [6 2] 4.000000] (HELLO)
r 0.000956376 _2_ RTR  --- 0 AODV 44 [0 ffffffff 5 800] ------- [5:255 -1:255 1 0] [0x1 1 [5 2] 4.000000] (HELLO)
r 0.000956377 _3_ RTR  --- 0 AODV 44 [0 ffffffff 5 800] ------- [5:255 -1:255 1 0] [0x1 1 [5 2] 4.000000] (HELLO)
r 0.000956500 _6_ RTR  --- 0 AODV 44 [0 ffffffff 5 800] ------- [5:255 -1:255 1 0] [0x1 1 [5 2] 4.000000] (HELLO)
r 0.002042754 _5_ RTR  --- 0 AODV 44 [0 ffffffff 3 800] ------- [3:255 -1:255 1 0] [0x1 1 [3 2] 4.000000] (HELLO)
r 0.002042846 _6_ RTR  --- 0 AODV 44 [0 ffffffff 3 800] ------- [3:255 -1:255 1 0] [0x1 1 [3 2] 4.000000] (HELLO)
r 0.002043047 _2_ RTR  --- 0 AODV 44 [0 ffffffff 3 800] ------- [3:255 -1:255 1 0] [0x1 1 [3 2] 4.000000] (HELLO)
r 0.003679384 _5_ RTR  --- 0 AODV 44 [0 ffffffff 2 800] ------- [2:255 -1:255 1 0] [0x1 1 [2 2] 4.000000] (HELLO)
r 0.003679478 _6_ RTR  --- 0 AODV 44 [0 ffffffff 2 800] ------- [2:255 -1:255 1 0] [0x1 1 [2 2] 4.000000] (HELLO)
r 0.003679675 _1_ RTR  --- 0 AODV 44 [0 ffffffff 2 800] ------- [2:255 -1:255 1 0] [0x1 1 [2 2] 4.000000] (HELLO)
r 0.003679679 _3_ RTR  --- 0 AODV 44 [0 ffffffff 2 800] ------- [2:255 -1:255 1 0] [0x1 1 [2 2] 4.000000] (HELLO)
r 0.004646053 _4_ RTR  --- 0 AODV 44 [0 ffffffff 1 800] ------- [1:255 -1:255 1 0] [0x1 1 [1 2] 4.000000] (HELLO)
r 0.004646342 _2_ RTR  --- 0 AODV 44 [0 ffffffff 1 800] ------- [1:255 -1:255 1 0] [0x1 1 [1 2] 4.000000] (HELLO)
r 0.004646342 _0_ RTR  --- 0 AODV 44 [0 ffffffff 1 800] ------- [1:255 -1:255 1 0] [0x1 1 [1 2] 4.000000] (HELLO)
r 0.005612427 _0_ RTR  --- 0 AODV 44 [0 ffffffff 4 800] ------- [4:255 -1:255 1 0] [0x1 1 [4 2] 4.000000] (HELLO)
r 0.005612430 _1_ RTR  --- 0 AODV 44 [0 ffffffff 4 800] ------- [4:255 -1:255 1 0] [0x1 1 [4 2] 4.000000] (HELLO)
r 0.006923949 _3_ RTR  --- 0 AODV 44 [0 ffffffff 6 800] ------- [6:255 -1:255 1 0] [0x1 1 [6 2] 4.000000] (HELLO)
r 0.006923949 _2_ RTR  --- 0 AODV 44 [0 ffffffff 6 800] ------- [6:255 -1:255 1 0] [0x1 1 [6 2] 4.000000] (HELLO)
r 0.006923980 _5_ RTR  --- 0 AODV 44 [0 ffffffff 6 800] ------- [6:255 -1:255 1 0] [0x1 1 [6 2] 4.000000] (HELLO)
s 0.750169789 _0_ RTR  --- 0 AODV 44 [0 0 0 0] ------- [0:255 -1:255 1 0] [0x1 1 [0 6] 4.000000] (HELLO)
r 0.751306163 _4_ RTR  --- 0 AODV 44 [0 ffffffff 0 800] ------- [0:255 -1:255 1 0] [0x1 1 [0 6] 4.000000] (HELLO)
r 0.751306455 _1_ RTR  --- 0 AODV 44 [0 ffffffff 0 800] ------- [0:255 -1:255 1 0] [0x1 1 [0 6] 4.000000] (HELLO)
s 0.757102330 _2_ RTR  --- 0 AODV 44 [0 0 0 0] ------- [2:255 -1:255 1 0] [0x1 1 [2 10] 4.000000] (HELLO)
r 0.758458706 _5_ RTR  --- 0 AODV 44 [0 ffffffff 2 800] ------- [2:255 -1:255 1 0] [0x1 1 [2 10] 4.000000] (HELLO)
r 0.758458799 _6_ RTR  --- 0 AODV 44 [0 ffffffff 2 800] ------- [2:255 -1:255 1 0] [0x1 1 [2 10] 4.000000] (HELLO)
r 0.758458997 _1_ RTR  --- 0 AODV 44 [0 ffffffff 2 800] ------- [2:255 -1:255 1 0] [0x1 1 [2 10] 4.000000] (HELLO)
r 0.758459000 _3_ RTR  --- 0 AODV 44 [0 ffffffff 2 800] ------- [2:255 -1:255 1 0] [0x1 1 [2 10] 4.000000] (HELLO)
s 0.794061336 _3_ RTR  --- 0 AODV 44 [0 0 0 0] ------- [3:255 -1:255 1 0] [0x1 1 [3 8] 4.000000] (HELLO)
r 0.795377713 _5_ RTR  --- 0 AODV 44 [0 ffffffff 3 800] ------- [3:255 -1:255 1 0] [0x1 1 [3 8] 4.000000] (HELLO)
r 0.795377805 _6_ RTR  --- 0 AODV 44 [0 ffffffff 3 800] ------- [3:255 -1:255 1 0] [0x1 1 [3 8] 4.000000] (HELLO)
r 0.795378006 _2_ RTR  --- 0 AODV 44 [0 ffffffff 3 800] ------- [3:255 -1:255 1 0] [0x1 1 [3 8] 4.000000] (HELLO)
s 0.906480886 _6_ RTR  --- 0 AODV 44 [0 0 0 0] ------- [6:255 -1:255 1 0] [0x1 1 [6 8] 4.000000] (HELLO)
r 0.907437355 _3_ RTR  --- 0 AODV 44 [0 ffffffff 6 800] ------- [6:255 -1:255 1 0] [0x1 1 [6 8] 4.000000] (HELLO)
r 0.907437355 _2_ RTR  --- 0 AODV 44 [0 ffffffff 6 800] ------- [6:255 -1:255 1 0] [0x1 1 [6 8] 4.000000] (HELLO)
r 0.907437386 _5_ RTR  --- 0 AODV 44 [0 ffffffff 6 800] ------- [6:255 -1:255 1 0] [0x1 1 [6 8] 4.000000] (HELLO)
s 0.970586691 _4_ RTR  --- 0 AODV 44 [0 0 0 0] ------- [4:255 -1:255 1 0] [0x1 1 [4 6] 4.000000] (HELLO)
r 0.971643065 _0_ RTR  --- 0 AODV 44 [0 ffffffff 4 800] ------- [4:255 -1:255 1 0] [0x1 1 [4 6] 4.000000] (HELLO)
r 0.971643068 _1_ RTR  --- 0 AODV 44 [0 ffffffff 4 800] ------- [4:255 -1:255 1 0] [0x1 1 [4 6] 4.000000] (HELLO)
s 1.000000000 _0_ AGT  --- 0 cbr 1000 [0 0 0 0] ------- [0:0 3:0 32 0] [0] 0 0
r 1.000000000 _0_ RTR  --- 0 cbr 1000 [0 0 0 0] ------- [0:0 3:0 32 0] [0] 0 0
s 1.000000000 _0_ RTR  --- 0 AODV 48 [0 0 0 0] ------- [0:255 -1:255 30 0] [0x2 1 1 [3 0] [0 8]] (REQUEST)
r 1.001228374 _4_ RTR  --- 0 AODV 48 [0 ffffffff 0 800] ------- [0:255 -1:255 30 0] [0x2 1 1 [3 0] [0 8]] (REQUEST)
r 1.001228667 _1_ RTR  --- 0 AODV 48 [0 ffffffff 0 800] ------- [0:255 -1:255 30 0] [0x2 1 1 [3 0] [0 8]] (REQUEST)
s 1.003102027 _4_ RTR  --- 0 AODV 48 [0 ffffffff 0 800] ------- [4:255 -1:255 29 0] [0x2 2 1 [3 0] [0 8]] (REQUEST)
r 1.004270401 _0_ RTR  --- 0 AODV 48 [0 ffffffff 4 800] ------- [4:255 -1:255 29 0] [0x2 2 1 [3 0] [0 8]] (REQUEST)
r 1.004270404 _1_ RTR  --- 0 AODV 48 [0 ffffffff 4 800] ------- [4:255 -1:255 29 0] [0x2 2 1 [3 0] [0 8]] (REQUEST)
s 1.010103102 _1_ RTR  --- 0 AODV 48 [0 ffffffff 0 800] ------- [1:255 -1:255 29 0] [0x2 2 1 [3 0] [0 8]] (REQUEST)
r 1.011631479 _4_ RTR  --- 0 AODV 48 [0 ffffffff 1 800] ------- [1:255 -1:255 29 0] [0x2 2 1 [3 0] [0 8]] (REQUEST)
r 1.011631769 _2_ RTR  --- 0 AODV 48 [0 ffffffff 1 800] ------- [1:255 -1:255 29 0] [0x2 2 1 [3 0] [0 8]] (REQUEST)
r 1.011631769 _0_ RTR  --- 0 AODV 48 [0 ffffffff 1 800] ------- [1:255 -1:255 29 0] [0x2 2 1 [3 0] [0 8]] (REQUEST)
s 1.011739852 _2_ RTR  --- 0 AODV 48 [0 ffffffff 1 800] ------- [2:255 -1:255 28 0] [0x2 3 1 [3 0] [0 8]] (REQUEST)
r 1.013028228 _5_ RTR  --- 0 AODV 48 [0 ffffffff 2 800] ------- [2:255 -1:255 28 0] [0x2 3 1 [3 0] [0 8]] (REQUEST)
r 1.013028321 _6_ RTR  --- 0 AODV 48 [0 ffffffff 2 800] ------- [2:255 -1:255 28 0] [0x2 3 1 [3 0] [0 8]] (REQUEST)
r 1.013028519 _1_ RTR  --- 0 AODV 48 [0 ffffffff 2 800] ------- [2:255 -1:255 28 0] [0x2 3 1 [3 0] [0 8]] (REQUEST)
r 1.013028522 _3_ RTR  --- 0 AODV 48 [0 ffffffff 2 800] ------- [2:255 -1:255 28 0] [0x2 3 1 [3 0] [0 8]] (REQUEST)
s 1.013028522 _3_ RTR  --- 0 AODV 44 [0 0 0 0] ------- [3:255 0:255 30 2] [0x4 1 [3 10] 10.000000] (REPLY)
s 1.014259263 _5_ RTR  --- 0 AODV 48 [0 ffffffff 2 800] ------- [5:255 -1:255 27 0] [0x2 4 1 [3 0] [0 8]] (REQUEST)
r 1.016905955 _2_ RTR  --- 0 AODV 48 [0 ffffffff 5 800] ------- [5:255 -1:255 27 0] [0x2 4 1 [3 0] [0 8]] (REQUEST)
r 1.016905957 _3_ RTR  --- 0 AODV 48 [0 ffffffff 5 800] ------- [5:255 -1:255 27 0] [0x2 4 1 [3 0] [0 8]] (REQUEST)
r 1.016906079 _6_ RTR  --- 0 AODV 48 [0 ffffffff 5 800] ------- [5:255 -1:255 27 0] [0x2 4 1 [3 0] [0 8]] (REQUEST)
r 1.018729967 _2_ RTR  --- 0 AODV 44 [13a 2 3 800] ------- [3:255 0:255 30 2] [0x4 1 [3 10] 10.000000] (REPLY)
f 1.018729967 _2_ RTR  --- 0 AODV 44 [13a 2 3 800] ------- [3:255 0:255 29 1] [0x4 2 [3 10] 10.000000] (REPLY)
s 1.019714560 _6_ RTR  --- 0 AODV 48 [0 ffffffff 2 800] ------- [6:255 -1:255 27 0] [0x2 4 1 [3 0] [0 8]] (REQUEST)
r 1.022706490 _3_ RTR  --- 0 AODV 48 [0 ffffffff 6 800] ------- [6:255 -1:255 27 0] [0x2 4 1 [3 0] [0 8]] (REQUEST)
r 1.022706490 _2_ RTR  --- 0 AODV 48 [0 ffffffff 6 800] ------- [6:255 -1:255 27 0] [0x2 4 1 [3 0] [0 8]] (REQUEST)
r 1.022706521 _5_ RTR  --- 0 AODV 48 [0 ffffffff 6 800] ------- [6:255 -1:255 27 0] [0x2 4 1 [3 0] [0 8]] (REQUEST)
r 1.024430490 _1_ RTR  --- 0 AODV 44 [13a 1 2 800] ------- [3:255 0:255 29 1] [0x4 2 [3 10] 10.000000] (REPLY)
f 1.024430490 _1_ RTR  --- 0 AODV 44 [13a 1 2 800] ------- [3:255 0:255 28 0] [0x4 3 [3 10] 10.000000] (REPLY)
s 1.027940358 _1_ RTR  --- 0 AODV 44 [0 0 0 0] ------- [1:255 -1:255 1 0] [0x1 1 [1 8] 4.000000] (HELLO)
r 1.029602157 _0_ RTR  --- 0 AODV 44 [13a 0 1 800] ------- [3:255 0:255 28 0] [0x4 3 [3 10] 10.000000] (REPLY)
s 1.029602157 _0_ RTR  --- 0 cbr 1020 [0 0 0 0] ------- [0:0 3:0 30 1] [0] 0 0
r 1.039308157 _1_ RTR  --- 0 cbr 1020 [13a 1 0 800] ------- [0:0 3:0 30 1] [0] 1 0
f 1.039308157 _1_ RTR  --- 0 cbr 1020 [13a 1 0 800] ------- [0:0 3:0 29 2] [0] 1 0
r 1.040928534 _4_ RTR  --- 0 AODV 44 [0 ffffffff 1 800] ------- [1:255 -1:255 1 0] [0x1 1 [1 8] 4.000000] (HELLO)
r 1.040928824 _2_ RTR  --- 0 AODV 44 [0 ffffffff 1 800] ------- [1:255 -1:255 1 0] [0x1 1 [1 8] 4.000000] (HELLO)
r 1.040928824 _0_ RTR  --- 0 AODV 44 [0 ffffffff 1 800] ------- [1:255 -1:255 1 0] [0x1 1 [1 8] 4.000000] (HELLO)
r 1.050480157 _2_ RTR  --- 0 cbr 1020 [13a 2 1 800] ------- [0:0 3:0 29 2] [0] 2 0
f 1.050480157 _2_ RTR  --- 0 cbr 1020 [13a 2 1 800] ------- [0:0 3:0 28 3] [0] 2 0
r 1.060246167 _3_ AGT  --- 0 cbr 1020 [13a 3 2 800] ------- [0:0 3:0 28 3] [0] 3 0
s 1.080000000 _0_ AGT  --- 1 cbr 1000 [0 0 0 0] ------- [0:0 3:0 32 0] [1] 0 0
r 1.080000000 _0_ RTR  --- 1 cbr 1000 [0 0 0 0] ------- [0:0 3:0 32 0] [1] 0 0
s 1.080000000 _0_ RTR  --- 1 cbr 1020 [0 0 0 0] ------- [0:0 3:0 30 1] [1] 0 0
r 1.089602000 _1_ RTR  --- 1 cbr 1020 [13a 1 0 800] ------- [0:0 3:0 30 1] [1] 1 0
f 1.089602000 _1_ RTR  --- 1 cbr 1020 [13a 1 0 800] ------- [0:0 3:0 29 2] [1] 1 0
r 1.099328000 _2_ RTR  --- 1 cbr 1020 [13a 2 1 800] ------- [0:0 3:0 29 2] [1] 2 0
f 1.099328000 _2_ RTR  --- 1 cbr 1020 [13a 2 1 800] ------- [0:0 3:0 28 3] [1] 2 0
r 1.109594010 _3_ AGT  --- 1 cbr 1020 [13a 3 2 800] ------- [0:0 3:0 28 3] [1] 3 0
s 1.149577727 _5_ RTR  --- 0 AODV 44 [0 0 0 0] ------- [5:255 -1:255 1 0] [0x1 1 [5 8] 4.000000] (HELLO)
r 1.150614102 _2_ RTR  --- 0 AODV 44 [0 ffffffff 5 800] ------- [5:255 -1:255 1 0] [0x1 1 [5 8] 4.000000] (HELLO)
r 1.150614104 _3_ RTR  --- 0 AODV 44 [0 ffffffff 5 800] ------- [5:255 -1:255 1 0] [0x1 1 [5 8] 4.000000] (HELLO)
r 1.150614227 _6_ RTR  --- 0 AODV 44 [0 ffffffff 5 800] ------- [5:255 -1:255 1 0] [0x1 1 [5 8] 4.000000] (HELLO)
s 1.160000000 _0_ AGT  --- 2 cbr 1000 [0 0 0 0] ------- [0:0 3:0 32 0] [2] 0 0
r 1.160000000 _0_ RTR  --- 2 cbr 1000 [0 0 0 0] ------- [0:0 3:0 32 0] [2] 0 0
s 1.160000000 _0_ RTR  --- 2 cbr 1020 [0 0 0 0] ------- [0:0 3:0 30 1] [2] 0 0
r 1.169842000 _1_ RTR  --- 2 cbr 1020 [13a 1 0 800] ------- [0:0 3:0 30 1] [2] 1 0
f 1.169842000 _1_ RTR  --- 2 cbr 1020 [13a 1 0 800] ------- [0:0 3:0 29 2] [2] 1 0
r 1.180048000 _2_ RTR  --- 2 cbr 1020 [13a 2 1 800] ------- [0:0 3:0 29 2] [2] 2 0
f 1.180048000 _2_ RTR  --- 2 cbr 1020 [13a 2 1 800] ------- [0:0 3:0 28 3] [2] 2 0
r 1.190014010 _3_ AGT  --- 2 cbr 1020 [13a 3 2 800] ------- [0:0 3:0 28 3] [2] 3 0
s 1.240000000 _0_ AGT  --- 3 cbr 1000 [0 0 0 0] ------- [0:0 3:0 32 0] [3] 0 0
r 1.240000000 _0_ RTR  --- 3 cbr 1000 [0 0 0 0] ------- [0:0 3:0 32 0] [3] 0 0
s 1.240000000 _0_ RTR  --- 3 cbr 1020 [0 0 0 0] ------- [0:0 3:0 30 1] [3] 0 0
r 1.249442000 _1_ RTR  --- 3 cbr 1020 [13a 1 0 800] ------- [0:0 3:0 30 1] [3] 1 0
f 1.249442000 _1_ RTR  --- 3 cbr 1020 [13a 1 0 800] ------- [0:0 3:0 29 2] [3] 1 0
r 1.259688000 _2_ RTR  --- 3 cbr 1020 [13a 2 1 800] ------- [0:0 3:0 29 2] [3] 2 0
f 1.259688000 _2_ RTR  --- 3 cbr 1020 [13a 2 1 800] ------- [0:0 3:0 28 3] [3] 2 0
r 1.269534010 _3_ AGT  --- 3 cbr 1020 [13a 3 2 800] ------- [0:0 3:0 28 3] [3] 3 0
s 1.320000000 _0_ AGT  --- 4 cbr 1000 [0 0 0 0] ------- [0:0 3:0 32 0] [4] 0 0
r 1.320000000 _0_ RTR  --- 4 cbr 1000 [0 0 0 0] ------- [0:0 3:0 32 0] [4] 0 0
s 1.320000000 _0_ RTR  --- 4 cbr 1020 [0 0 0 0] ------- [0:0 3:0 30 1] [4] 0 0
r 1.329802000 _1_ RTR  --- 4 cbr 1020 [13a 1 0 800] ------- [0:0 3:0 30 1] [4] 1 0
f 1.329802000 _1_ RTR  --- 4 cbr 1020 [13a 1 0 800] ------- [0:0 3:0 29 2] [4] 1 0
r 1.339588000 _2_ RTR  --- 4 cbr 1020 [13a 2 1 800] ------- [0:0 3:0 29 2] [4] 2 0
f 1.339588000 _2_ RTR  --- 4 cbr 1020 [13a 2 1 800] ------- [0:0 3:0 28 3] [4] 2 0
r 1.349474010 _3_ AGT  --- 4 cbr 1020 [13a 3 2 800] ------- [0:0 3:0 28 3] [4] 3 0
s 1.400000000 _0_ AGT  --- 5 cbr 1000 [0 0 0 0] ------- [0:0 3:0 32 0] [5] 0 0
r 1.400000000 _0_ RTR  --- 5 cbr 1000 [0 0 0 0] ------- [0:0 3:0 32 0] [5] 0 0
s 1.400000000 _0_ RTR  --- 5 cbr 1020 [0 0 0 0] ------- [0:0 3:0 30 1] [5] 0 0
r 1.409762000 _1_ RTR  --- 5 cbr 1020 [13a 1 0 800] ------- [0:0 3:0 30 1] [5] 1 0
f 1.409762000 _1_ RTR  --- 5 cbr 1020 [13a 1 0 800] ------- [0:0 3:0 29 2] [5] 1 0
r 1.419748000 _2_ RTR  --- 5 cbr 1020 [13a 2 1 800] ------- [0:0 3:0 29 2] [5] 2 0
f 1.419748000 _2_ RTR  --- 5 cbr 1020 [13a 2 1 800] ------- [0:0 3:0 28 3] [5] 2 0
r 1.429914010 _3_ AGT  --- 5 cbr 1020 [13a 3 2 800] ------- [0:0 3:0 28 3] [5] 3 0
s 1.480000000 _0_ AGT  --- 6 cbr 1000 [0 0 0 0] ------- [0:0 3:0 32 0] [6] 0 0
r 1.480000000 _0_ RTR  --- 6 cbr 1000 [0 0 0 0] ------- [0:0 3:0 32 0] [6] 0 0
s 1.480000000 _0_ RTR  --- 6 cbr 1020 [0 0 0 0] ------- [0:0 3:0 30 1] [6] 0 0
r 1.489422000 _1_ RTR  --- 6 cbr 1020 [13a 1 0 800] ------- [0:0 3:0 30 1] [6] 1 0
f 1.489422000 _1_ RTR  --- 6 cbr 1020 [13a 1 0 800] ------- [0:0 3:0 29 2] [6] 1 0
r 1.499348000 _2_ RTR  --- 6 cbr 1020 [13a 2 1 800] ------- [0:0 3:0 29 2] [6] 2 0
f 1.499348000 _2_ RTR  --- 6 cbr 1020 [13a 2 1 800] ------- [0:0 3:0 28 3] [6] 2 0
r 1.509014010 _3_ AGT  --- 6 cbr 1020 [13a 3 2 800] ------- [0:0 3:0 28 3] [6] 3 0
s 1.560000000 _0_ AGT  --- 7 cbr 1000 [0 0 0 0] ------- [0:0 3:0 32 0] [7] 0 0
r 1.560000000 _0_ RTR  --- 7 cbr 1000 [0 0 0 0] ------- [0:0 3:0 32 0] [7] 0 0
s 1.560000000 _0_ RTR  --- 7 cbr 1020 [0 0 0 0] ------- [0:0 3:0 30 1] [7] 0 0
r 1.570002000 _1_ RTR  --- 7 cbr 1020 [13a 1 0 800] ------- [0:0 3:0 30 1] [7] 1 0
f 1.570002000 _1_ RTR  --- 7 cbr 1020 [13a 1 0 800] ------- [0:0 3:0 29 2] [7] 1 0
r 1.580088000 _2_ RTR  --- 7 cbr 1020 [13a 2 1 800] ------- [0:0 3:0 29 2] [7] 2 0
f 1.580088000 _2_ RTR  --- 7 cbr 1020 [13a 2 1 800] ------- [0:0 3:0 28 3] [7] 2 0
r 1.589774010 _3_ AGT  --- 7 cbr 1020 [13a 3 2 800] ------- [0:0 3:0 28 3] [7] 3 0
s 1.640000000 _0_ AGT  --- 8 cbr 1000 [0 0 0 0] ------- [0:0 3:0 32 0] [8] 0 0
r 1.640000000 _0_ RTR  --- 8 cbr 1000 [0 0 0 0] ------- [0:0 3:0 32 0] [8] 0 0
s 1.640000000 _0_ RTR  --- 8 cbr 1020 [0 0 0 0] ------- [0:0 3:0 30 1] [8] 0 0
r 1.649422000 _1_ RTR  --- 8 cbr 1020 [13a 1 0 800] ------- [0:0 3:0 30 1] [8] 1 0
f 1.649422000 _1_ RTR  --- 8 cbr 1020 [13a 1 0 800] ------- [0:0 3:0 29 2] [8] 1 0
r 1.659108000 _2_ RTR  --- 8 cbr 1020 [13a 2 1 800] ------- [0:0 3:0 29 2] [8] 2 0
f 1.659108000 _2_ RTR  --- 8 cbr 1020 [13a 2 1 800] ------- [0:0 3:0 28 3] [8] 2 0
r 1.669214010 _3_ AGT  --- 8 cbr 1020 [13a 3 2 800] ------- [0:0 3:0 28 3] [8] 3 0
s 1.674540301 _0_ RTR  --- 0 AODV 44 [0 0 0 0] ------- [0:255 -1:255 1 0] [0x1 1 [0 8] 4.000000] (HELLO)
r 1.675636676 _4_ RTR  --- 0 AODV 44 [0 ffffffff 0 800] ------- [0:255 -1:255 1 0] [0x1 1 [0 8] 4.000000] (HELLO)
r 1.675636968 _1_ RTR  --- 0 AODV 44 [0 ffffffff 0 800] ------- [0:255 -1:255 1 0] [0x1 1 [0 8] 4.000000] (HELLO)
s 1.720000000 _0_ AGT  --- 9 cbr 1000 [0 0 0 0] ------- [0:0 3:0 32 0] [9] 0 0
r 1.720000000 _0_ RTR  --- 9 cbr 1000 [0 0 0 0] ------- [0:0 3:0 32 0] [9] 0 0
s 1.720000000 _0_ RTR  --- 9 cbr 1020 [0 0 0 0] ------- [0:0 3:0 30 1] [9] 0 0
r 1.729582000 _1_ RTR  --- 9 cbr 1020 [13a 1 0 800] ------- [0:0 3:0 30 1] [9] 1 0
f 1.729582000 _1_ RTR  --- 9 cbr 1020 [13a 1 0 800] ------- [0:0 3:0 29 2] [9] 1 0
r 1.739388000 _2_ RTR  --- 9 cbr 1020 [13a 2 1 800] ------- [0:0 3:0 29 2] [9] 2 0
f 1.739388000 _2_ RTR  --- 9 cbr 1020 [13a 2 1 800] ------- [0:0 3:0 28 3] [9] 2 0
r 1.749054010 _3_ AGT  --- 9 cbr 1020 [13a 3 2 800] ------- [0:0 3:0 28 3] [9] 3 0
s 1.766426728 _2_ RTR  --- 0 AODV 44 [0 0 0 0] ------- [2:255 -1:255 1 0] [0x1 1 [2 10] 4.000000] (HELLO)
r 1.767903103 _5_ RTR  --- 0 AODV 44 [0 ffffffff 2 800] ------- [2:255 -1:255 1 0] [0x1 1 [2 10] 4.000000] (HELLO)
r 1.767903197 _6_ RTR  --- 0 AODV 44 [0 ffffffff 2 800] ------- [2:255 -1:255 1 0] [0x1 1 [2 10] 4.000000] (HELLO)
r 1.767903394 _1_ RTR  --- 0 AODV 44 [0 ffffffff 2 800] ------- [2:255 -1:255 1 0] [0x1 1 [2 10] 4.000000] (HELLO)
r 1.767903398 _3_ RTR  --- 0 AODV 44 [0 ffffffff 2 800] ------- [2:255 -1:255 1 0] [0x1 1 [2 10] 4.000000] (HELLO)
s 1.777093700 _6_ RTR  --- 0 AODV 44 [0 0 0 0] ------- [6:255 -1:255 1 0] [0x1 1 [6 8] 4.000000] (HELLO)
r 1.778230169 _3_ RTR  --- 0 AODV 44 [0 ffffffff 6 800] ------- [6:255 -1:255 1 0] [0x1 1 [6 8] 4.000000] (HELLO)
r 1.778230169 _2_ RTR  --- 0 AODV 44 [0 ffffffff 6 800] ------- [6:255 -1:255 1 0] [0x1 1 [6 8] 4.000000] (HELLO)
r 1.778230200 _5_ RTR  --- 0 AODV 44 [0 ffffffff 6 800] ------- [6:255 -1:255 1 0] [0x1 1 [6 8] 4.000000] (HELLO)
s 1.800000000 _0_ AGT  --- 10 cbr 1000 [0 0 0 0] ------- [0:0 3:0 32 0] [10] 0 0
r 1.800000000 _0_ RTR  --- 10 cbr 1000 [0 0 0 0] ------- [0:0 3:0 32 0] [10] 0 0
s 1.800000000 _0_ RTR  --- 10 cbr 1020 [0 0 0 0] ------- [0:0 3:0 30 1] [10] 0 0
r 1.809542000 _1_ RTR  --- 10 cbr 1020 [13a 1 0 800] ------- [0:0 3:0 30 1] [10] 1 0
f 1.809542000 _1_ RTR  --- 10 cbr 1020 [13a 1 0 800] ------- [0:0 3:0 29 2] [10] 1 0
r 1.819448000 _2_ RTR  --- 10 cbr 1020 [13a 2 1 800] ------- [0:0 3:0 29 2] [10] 2 0
f 1.819448000 _2_ RTR  --- 10 cbr 1020 [13a 2 1 800] ------- [0:0 3:0 28 3] [10] 2 0
s 1.823618816 _1_ RTR  --- 0 AODV 44 [0 0 0 0] ------- [1:255 -1:255 1 0] [0x1 1 [1 8] 4.000000] (HELLO)
r 1.829214010 _3_ AGT  --- 10 cbr 1020 [13a 3 2 800] ------- [0:0 3:0 28 3] [10] 3 0
r 1.830859724 _4_ RTR  --- 0 AODV 44 [0 ffffffff 1 800] ------- [1:255 -1:255 1 0] [0x1 1 [1 8] 4.000000] (HELLO)
r 1.830860014 _2_ RTR  --- 0 AODV 44 [0 ffffffff 1 800] ------- [1:255 -1:255 1 0] [0x1 1 [1 8] 4.000000] (HELLO)
r 1.830860014 _0_ RTR  --- 0 AODV 44 [0 ffffffff 1 800] ------- [1:255 -1:255 1 0] [0x1 1 [1 8] 4.000000] (HELLO)
s 1.880000000 _0_ AGT  --- 11 cbr 1000 [0 0 0 0] ------- [0:0 3:0 32 0] [11] 0 0
r 1.880000000 _0_ RTR  --- 11 cbr 1000 [0 0 0 0] ------- [0:0 3:0 32 0] [11] 0 0
s 1.880000000 _0_ RTR  --- 11 cbr 1020 [0 0 0 0] ------- [0:0 3:0 30 1] [11] 0 0
r 1.889642000 _1_ RTR  --- 11 cbr 1020 [13a 1 0 800] ------- [0:0 3:0 30 1] [11] 1 0
f 1.889642000 _1_ RTR  --- 11 cbr 1020 [13a 1 0 800] ------- [0:0 3:0 29 2] [11] 1 0
r 1.899308000 _2_ RTR  --- 11 cbr 1020 [13a 2 1 800] ------- [0:0 3:0 29 2] [11] 2 0
f 1.899308000 _2_ RTR  --- 11 cbr 1020 [13a 2 1 800] ------- [0:0 3:0 28 3] [11] 2 0
r 1.909334010 _3_ AGT  --- 11 cbr 1020 [13a 3 2 800] ------- [0:0 3:0 28 3] [11] 3 0
s 1.960000000 _0_ AGT  --- 12 cbr 1000 [0 0 0 0] ------- [0:0 3:0 32 0] [12] 0 0
r 1.960000000 _0_ RTR  --- 12 cbr 1000 [0 0 0 0] ------- [0:0 3:0 32 0] [12] 0 0
s 1.960000000 _0_ RTR  --- 12 cbr 1020 [0 0 0 0] ------- [0:0 3:0 30 1] [12] 0 0
r 1.970002000 _1_ RTR  --- 12 cbr 1020 [13a 1 0 800] ------- [0:0 3:0 30 1] [12] 1 0
f 1.970002000 _1_ RTR  --- 12 cbr 1020 [13a 1 0 800] ------- [0:0 3:0 29 2] [12] 1 0
s 1.975094976 _3_ RTR  --- 0 AODV 44 [0 0 0 0] ------- [3:255 -1:255 1 0] [0x1 1 [3 10] 4.000000] (HELLO)
r 1.979808000 _2_ RTR  --- 12 cbr 1020 [13a 2 1 800] ------- [0:0 3:0 29 2] [12] 2 0
f 1.979808000 _2_ RTR  --- 12 cbr 1020 [13a 2 1 800] ------- [0:0 3:0 28 3] [12] 2 0
r 1.981079047 _5_ RTR  --- 0 AODV 44 [0 ffffffff 3 800] ------- [3:255 -1:255 1 0] [0x1 1 [3 10] 4.000000] (HELLO)
r 1.981079139 _6_ RTR  --- 0 AODV 44 [0 ffffffff 3 800] ------- [3:255 -1:255 1 0] [0x1 1 [3 10] 4.000000] (HELLO)
r 1.981079340 _2_ RTR  --- 0 AODV 44 [0 ffffffff 3 800] ------- [3:255 -1:255 1 0] [0x1 1 [3 10] 4.000000] (HELLO)
r 1.990831350 _3_ AGT  --- 12 cbr 1020 [13a 3 2 800] ------- [0:0 3:0 28 3] [12] 3 0
s 2.040000000 _0_ AGT  --- 13 cbr 1000 [0 0 0 0] ------- [0:0 3:0 32 0] [13] 0 0
r 2.040000000 _0_ RTR  --- 13 cbr 1000 [0 0 0 0] ------- [0:0 3:0 32 0] [13] 0 0
s 2.040000000 _0_ RTR  --- 13 cbr 1020 [0 0 0 0] ------- [0:0 3:0 30 1] [13] 0 0
r 2.049962000 _1_ RTR  --- 13 cbr 1020 [13a 1 0 800] ------- [0:0 3:0 30 1] [13] 1 0
f 2.049962000 _1_ RTR  --- 13 cbr 1020 [13a 1 0 800] ------- [0:0 3:0 29 2] [13] 1 0
r 2.059928000 _2_ RTR  --- 13 cbr 1020 [13a 2 1 800] ------- [0:0 3:0 29 2] [13] 2 0
f 2.059928000 _2_ RTR  --- 13 cbr 1020 [13a 2 1 800] ------- [0:0 3:0 28 3] [13] 2 0
r 2.069914010 _3_ AGT  --- 13 cbr 1020 [13a 3 2 800] ------- [0:0 3:0 28 3] [13] 3 0
s 2.101702637 _4_ RTR  --- 0 AODV 44 [0 0 0 0] ------- [4:255 -1:255 1 0] [0x1 1 [4 6] 4.000000] (HELLO)
r 2.103119012 _0_ RTR  --- 0 AODV 44 [0 ffffffff 4 800] ------- [4:255 -1:255 1 0] [0x1 1 [4 6] 4.000000] (HELLO)
r 2.103119015 _1_ RTR  --- 0 AODV 44 [0 ffffffff 4 800] ------- [4:255 -1:255 1 0] [0x1 1 [4 6] 4.000000] (HELLO)
s 2.120000000 _0_ AGT  --- 14 cbr 1000 [0 0 0 0] ------- [0:0 3:0 32 0] [14] 0 0
r 2.120000000 _0_ RTR  --- 14 cbr 1000 [0 0 0 0] ------- [0:0 3:0 32 0] [14] 0 0
s 2.120000000 _0_ RTR  --- 14 cbr 1020 [0 0 0 0] ------- [0:0 3:0 30 1] [14] 0 0
r 2.130002000 _1_ RTR  --- 14 cbr 1020 [13a 1 0 800] ------- [0:0 3:0 30 1] [14] 1 0
f 2.130002000 _1_ RTR  --- 14 cbr 1020 [13a 1 0 800] ------- [0:0 3:0 29 2] [14] 1 0
r 2.139668000 _2_ RTR  --- 14 cbr 1020 [13a 2 1 800] ------- [0:0 3:0 29 2] [14] 2 0
f 2.139668000 _2_ RTR  --- 14 cbr 1020 [13a 2 1 800] ------- [0:0 3:0 28 3] [14] 2 0
r 2.149654010 _3_ AGT  --- 14 cbr 1020 [13a 3 2 800] ------- [0:0 3:0 28 3] [14] 3 0
s 2.200000000 _0_ AGT  --- 15 cbr 1000 [0 0 0 0] ------- [0:0 3:0 32 0] [15] 0 0
r 2.200000000 _0_ RTR  --- 15 cbr 1000 [0 0 0 0] ------- [0:0 3:0 32 0] [15] 0 0
s 2.200000000 _0_ RTR  --- 15 cbr 1020 [0 0 0 0] ------- [0:0 3:0 30 1] [15] 0 0
r 2.209702000 _1_ RTR  --- 15 cbr 1020 [13a 1 0 800] ------- [0:0 3:0 30 1] [15] 1 0
f 2.209702000 _1_ RTR  --- 15 cbr 1020 [13a 1 0 800] ------- [0:0 3:0 29 2] [15] 1 0
r 2.219768000 _2_ RTR  --- 15 cbr 1020 [13a 2 1 800] ------- [0:0 3:0 29 2] [15] 2 0
f 2.219768000 _2_ RTR  --- 15 cbr 1020 [13a 2 1 800] ------- [0:0 3:0 28 3] [15] 2 0
r 2.229894010 _3_ AGT  --- 15 cbr 1020 [13a 3 2 800] ------- [0:0 3:0 28 3] [15] 3 0
s 2.280000000 _0_ AGT  --- 16 cbr 1000 [0 0 0 0] ------- [0:0 3:0 32 0] [16] 0 0
r 2.280000000 _0_ RTR  --- 16 cbr 1000 [0 0 0 0] ------- [0:0 3:0 32 0] [16] 0 0
s 2.280000000 _0_ RTR  --- 16 cbr 1020 [0 0 0 0] ------- [0:0 3:0 30 1] [16] 0 0
r 2.289482000 _1_ RTR  --- 16 cbr 1020 [13a 1 0 800] ------- [0:0 3:0 30 1] [16] 1 0
f 2.289482000 _1_ RTR  --- 16 cbr 1020 [13a 1 0 800] ------- [0:0 3:0 29 2] [16] 1 0
r 2.299708000 _2_ RTR  --- 16 cbr 1020 [13a 2 1 800] ------- [0:0 3:0 29 2] [16] 2 0
f 2.299708000 _2_ RTR  --- 16 cbr 1020 [13a 2 1 800] ------- [0:0 3:0 28 3] [16] 2 0
s 2.300583658 _5_ RTR  --- 0 AODV 44 [0 0 0 0] ------- [5:255 -1:255 1 0] [0x1 1 [5 8] 4.000000] (HELLO)
r 2.309714010 _3_ AGT  --- 16 cbr 1020 [13a 3 2 800] ------- [0:0 3:0 28 3] [16] 3 0
r 2.310994763 _2_ RTR  --- 0 AODV 44 [0 ffffffff 5 800] ------- [5:255 -1:255 1 0] [0x1 1 [5 8] 4.000000] (HELLO)
r 2.310994764 _3_ RTR  --- 0 AODV 44 [0 ffffffff 5 800] ------- [5:255 -1:255 1 0] [0x1 1 [5 8] 4.000000] (HELLO)
r 2.310994887 _6_ RTR  --- 0 AODV 44 [0 ffffffff 5 800] ------- [5:255 -1:255 1 0] [0x1 1 [5 8] 4.000000] (HELLO)
s 2.360000000 _0_ AGT  --- 17 cbr 1000 [0 0 0 0] ------- [0:0 3:0 32 0] [17] 0 0
r 2.360000000 _0_ RTR  --- 17 cbr 1000 [0 0 0 0] ------- [0:0 3:0 32 0] [17] 0 0
s 2.360000000 _0_ RTR  --- 17 cbr 1020 [0 0 0 0] ------- [0:0 3:0 30 1] [17] 0 0
r 2.369442000 _1_ RTR  --- 17 cbr 1020 [13a 1 0 800] ------- [0:0 3:0 30 1] [17] 1 0
f 2.369442000 _1_ RTR  --- 17 cbr 1020 [13a 1 0 800] ------- [0:0 3:0 29 2] [17] 1 0
r 2.379208000 _2_ RTR  --- 17 cbr 1020 [13a 2 1 800] ------- [0:0 3:0 29 2] [17] 2 0
f 2.379208000 _2_ RTR  --- 17 cbr 1020 [13a 2 1 800] ------- [0:0 3:0 28 3] [17] 2 0
r 2.388934010 _3_ AGT  --- 17 cbr 1020 [13a 3 2 800] ------- [0:0 3:0 28 3] [17] 3 0
s 2.440000000 _0_ AGT  --- 18 cbr 1000 [0 0 0 0] ------- [0:0 3:0 32 0] [18] 0 0
r 2.440000000 _0_ RTR  --- 18 cbr 1000 [0 0 0 0] ------- [0:0 3:0 32 0] [18] 0 0
s 2.440000000 _0_ RTR  --- 18 cbr 1020 [0 0 0 0] ------- [0:0 3:0 30 1] [18] 0 0
r 2.449682000 _1_ RTR  --- 18 cbr 1020 [13a 1 0 800] ------- [0:0 3:0 30 1] [18] 1 0
f 2.449682000 _1_ RTR  --- 18 cbr 1020 [13a 1 0 800] ------- [0:0 3:0 29 2] [18] 1 0
r 2.459388000 _2_ RTR  --- 18 cbr 1020 [13a 2 1 800] ------- [0:0 3:0 29 2] [18] 2 0
f 2.459388000 _2_ RTR  --- 18 cbr 1020 [13a 2 1 800] ------- [0:0 3:0 28 3] [18] 2 0
r 2.469414010 _3_ AGT  --- 18 cbr 1020 [13a 3 2 800] ------- [0:0 3:0 28 3] [18] 3 0
s 2.520000000 _0_ AGT  --- 19 cbr 1000 [0 0 0 0] ------- [0:0 3:0 32 0] [19] 0 0
r 2.520000000 _0_ RTR  --- 19 cbr 1000 [0 0 0 0] ------- [0:0 3:0 32 0] [19] 0 0
s 2.520000000 _0_ RTR  --- 19 cbr 1020 [0 0 0 0] ------- [0:0 3:0 30 1] [19] 0 0
r 2.529742000 _1_ RTR  --- 19 cbr 1020 [13a 1 0 800] ------- [0:0 3:0 30 1] [19] 1 0
f 2.529742000 _1_ RTR  --- 19 cbr 1020 [13a 1 0 800] ------- [0:0 3:0 29 2] [19] 1 0
r 2.539748000 _2_ RTR  --- 19 cbr 1020 [13a 2 1 800] ------- [0:0 3:0 29 2] [19] 2 0
f 2.539748000 _2_ RTR  --- 19 cbr 1020 [13a 2 1 800] ------- [0:0 3:0 28 3] [19] 2 0
r 2.549774010 _3_ AGT  --- 19 cbr 1020 [13a 3 2 800] ------- [0:0 3:0 28 3] [19] 3 0
s 2.600000000 _0_ AGT  --- 20 cbr 1000 [0 0 0 0] ------- [0:0 3:0 32 0] [20] 0 0
r 2.600000000 _0_ RTR  --- 20 cbr 1000 [0 0 0 0] ------- [0:0 3:0 32 0] [20] 0 0
s 2.600000000 _0_ RTR  --- 20 cbr 1020 [0 0 0 0] ------- [0:0 3:0 30 1] [20] 0 0
r 2.609662000 _1_ RTR  --- 20 cbr 1020 [13a 1 0 800] ------- [0:0 3:0 30 1] [20] 1 0
f 2.609662000 _1_ RTR  --- 20 cbr 1020 [13a 1 0 800] ------- [0:0 3:0 29 2] [20] 1 0
r 2.619328000 _2_ RTR  --- 20 cbr 1020 [13a 2 1 800] ------- [0:0 3:0 29 2] [20] 2 0
f 2.619328000 _2_ RTR  --- 20 cbr 1020 [13a 2 1 800] ------- [0:0 3:0 28 3] [20] 2 0
r 2.629234010 _3_ AGT  --- 20 cbr 1020 [13a 3 2 800] ------- [0:0 3:0 28 3] [20] 3 0
s 2.629842076 _2_ RTR  --- 0 AODV 44 [0 0 0 0] ------- [2:255 -1:255 1 0] [0x1 1 [2 10] 4.000000] (HELLO)
r 2.630815056 _5_ RTR  --- 0 AODV 44 [0 ffffffff 2 800] ------- [2:255 -1:255 1 0] [0x1 1 [2 10] 4.000000] (HELLO)
r 2.630815149 _6_ RTR  --- 0 AODV 44 [0 ffffffff 2 800] ------- [2:255 -1:255 1 0] [0x1 1 [2 10] 4.000000] (HELLO)
r 2.630815347 _1_ RTR  --- 0 AODV 44 [0 ffffffff 2 800] ------- [2:255 -1:255 1 0] [0x1 1 [2 10] 4.000000] (HELLO)
r 2.630815350 _3_ RTR  --- 0 AODV 44 [0 ffffffff 2 800] ------- [2:255 -1:255 1 0] [0x1 1 [2 10] 4.000000] (HELLO)
s 2.680000000 _0_ AGT  --- 21 cbr 1000 [0 0 0 0] ------- [0:0 3:0 32 0] [21] 0 0
r 2.680000000 _0_ RTR  --- 21 cbr 1000 [0 0 0 0] ------- [0:0 3:0 32 0] [21] 0 0
s 2.680000000 _0_ RTR  --- 21 cbr 1020 [0 0 0 0] ------- [0:0 3:0 30 1] [21] 0 0
r 2.689922000 _1_ RTR  --- 21 cbr 1020 [13a 1 0 800] ------- [0:0 3:0 30 1] [21] 1 0
f 2.689922000 _1_ RTR  --- 21 cbr 1020 [13a 1 0 800] ------- [0:0 3:0 29 2] [21] 1 0
s 2.697074374 _6_ RTR  --- 0 AODV 44 [0 0 0 0] ------- [6:255 -1:255 1 0] [0x1 1 [6 8] 4.000000] (HELLO)
r 2.699968000 _2_ RTR  --- 21 cbr 1020 [13a 2 1 800] ------- [0:0 3:0 29 2] [21] 2 0
f 2.699968000 _2_ RTR  --- 21 cbr 1020 [13a 2 1 800] ------- [0:0 3:0 28 3] [21] 2 0
r 2.709794010 _3_ AGT  --- 21 cbr 1020 [13a 3 2 800] ------- [0:0 3:0 28 3] [21] 3 0
r 2.711454948 _3_ RTR  --- 0 AODV 44 [0 ffffffff 6 800] ------- [6:255 -1:255 1 0] [0x1 1 [6 8] 4.000000] (HELLO)
r 2.711454948 _2_ RTR  --- 0 AODV 44 [0 ffffffff 6 800] ------- [6:255 -1:255 1 0] [0x1 1 [6 8] 4.000000] (HELLO)
r 2.711454979 _5_ RTR  --- 0 AODV 44 [0 ffffffff 6 800] ------- [6:255 -1:255 1 0] [0x1 1 [6 8] 4.000000] (HELLO)
s 2.760000000 _0_ AGT  --- 22 cbr 1000 [0 0 0 0] ------- [0:0 3:0 32 0] [22] 0 0
r 2.760000000 _0_ RTR  --- 22 cbr 1000 [0 0 0 0] ------- [0:0 3:0 32 0] [22] 0 0
s 2.760000000 _0_ RTR  --- 22 cbr 1020 [0 0 0 0] ------- [0:0 3:0 30 1] [22] 0 0
r 2.769822000 _1_ RTR  --- 22 cbr 1020 [13a 1 0 800] ------- [0:0 3:0 30 1] [22] 1 0
f 2.769822000 _1_ RTR  --- 22 cbr 1020 [13a 1 0 800] ------- [0:0 3:0 29 2] [22] 1 0
r 2.780068000 _2_ RTR  --- 22 cbr 1020 [13a 2 1 800] ------- [0:0 3:0 29 2] [22] 2 0
f 2.780068000 _2_ RTR  --- 22 cbr 1020 [13a 2 1 800] ------- [0:0 3:0 28 3] [22] 2 0
r 2.789874010 _3_ AGT  --- 22 cbr 1020 [13a 3 2 800] ------- [0:0 3:0 28 3] [22] 3 0
s 2.840000000 _0_ AGT  --- 23 cbr 1000 [0 0 0 0] ------- [0:0 3:0 32 0] [23] 0 0
r 2.840000000 _0_ RTR  --- 23 cbr 1000 [0 0 0 0] ------- [0:0 3:0 32 0] [23] 0 0
s 2.840000000 _0_ RTR  --- 23 cbr 1020 [0 0 0 0] ------- [0:0 3:0 30 1] [23] 0 0
r 2.849842000 _1_ RTR  --- 23 cbr 1020 [13a 1 0 800] ------- [0:0 3:0 30 1] [23] 1 0
f 2.849842000 _1_ RTR  --- 23 cbr 1020 [13a 1 0 800] ------- [0:0 3:0 29 2] [23] 1 0
s 2.849931701 _0_ RTR  --- 0 AODV 44 [0 0 0 0] ------- [0:255 -1:255 1 0] [0x1 1 [0 8] 4.000000] (HELLO)
s 2.856525417 _3_ RTR  --- 0 AODV 44 [0 0 0 0] ------- [3:255 -1:255 1 0] [0x1 1 [3 10] 4.000000] (HELLO)
r 2.859628000 _2_ RTR  --- 23 cbr 1020 [13a 2 1 800] ------- [0:0 3:0 29 2] [23] 2 0
f 2.859628000 _2_ RTR  --- 23 cbr 1020 [13a 2 1 800] ------- [0:0 3:0 28 3] [23] 2 0
r 2.861059047 _5_ RTR  --- 0 AODV 44 [0 ffffffff 3 800] ------- [3:255 -1:255 1 0] [0x1 1 [3 10] 4.000000] (HELLO)
r 2.861059139 _6_ RTR  --- 0 AODV 44 [0 ffffffff 3 800] ------- [3:255 -1:255 1 0] [0x1 1 [3 10] 4.000000] (HELLO)
r 2.861059340 _2_ RTR  --- 0 AODV 44 [0 ffffffff 3 800] ------- [3:255 -1:255 1 0] [0x1 1 [3 10] 4.000000] (HELLO)
r 2.871310677 _3_ AGT  --- 23 cbr 1020 [13a 3 2 800] ------- [0:0 3:0 28 3] [23] 3 0
s 2.920000000 _0_ AGT  --- 24 cbr 1000 [0 0 0 0] ------- [0:0 3:0 32 0] [24] 0 0
r 2.920000000 _0_ RTR  --- 24 cbr 1000 [0 0 0 0] ------- [0:0 3:0 32 0] [24] 0 0
s 2.920000000 _0_ RTR  --- 24 cbr 1020 [0 0 0 0] ------- [0:0 3:0 30 1] [24] 0 0
r 2.929662000 _1_ RTR  --- 24 cbr 1020 [13a 1 0 800] ------- [0:0 3:0 30 1] [24] 1 0