n -t * -s 0  -x 99 -y 299 -Z 0 -z 20  -v circle -c black
n -t * -s 1  -x 299 -y 297 -Z 0 -z 20  -v circle -c black
n -t * -s 2  -x 499 -y 298 -Z 0 -z 20  -v circle -c black
n -t * -s 3  -x 700 -y 299 -Z 0 -z 20  -v circle -c black
n -t * -s 4  -x 199 -y 350 -Z 0 -z 20  -v circle -c black
n -t * -s 5  -x 599 -y 350 -Z 0 -z 20  -v circle -c black
n -t * -s 6  -x 600 -y 200 -Z 0 -z 20  -v circle -c black
n -t * -s 7  -x 800 -y 299 -Z 0 -z 20  -v circle -c black
V -t * -v 1.0a5 -a 0
W -t * -x 800 -y 541
A -t * -n 1 -p 0 -o 0x7fffffff -c 30 -a 1
A -t * -h 1 -m 1073741823 -s 0
n -t 0 -s 5 -S COLOR -c red -o red -i red -I red
n -t 0 -s 5 -S DLABEL -l "Attacker" -L ""
n -t 0 -s 0 -S COLOR -c green -o green -i green -I green
n -t 0 -s 0 -S DLABEL -l "Source" -L ""
n -t 0 -s 7 -S COLOR -c blue -o blue -i blue -I blue
n -t 0 -s 7 -S DLABEL -l "Destination" -L ""
+ -t 1.000000000 -s 0 -d -1 -p cbr -e 1000 -c 2 -a 0 -i 0 -k AGT 
- -t 1.000000000 -s 0 -d -1 -p cbr -e 1000 -c 2 -a 0 -i 0 -k AGT
h -t 1.000000000 -s 0 -d -1 -p cbr -e 1000 -c 2 -a 0 -i 0 -k AGT
+ -t 1.000000000 -s 0 -d -1 -p AODV -e 48 -c 2 -a 0 -i 0 -k RTR 
- -t 1.000000000 -s 0 -d -1 -p AODV -e 48 -c 2 -a 0 -i 0 -k RTR
h -t 1.000000000 -s 0 -d -1 -p AODV -e 48 -c 2 -a 0 -i 0 -k RTR
r -t 1.001408374 -s 4 -d -1 -p AODV -e 48 -c 2 -a 0 -i 0 -k RTR
r -t 1.001408667 -s 1 -d -1 -p AODV -e 48 -c 2 -a 0 -i 0 -k RTR
+ -t 1.001550421 -s 4 -d -1 -p AODV -e 48 -c 2 -a 0 -i 0 -k RTR 
- -t 1.001550421 -s 4 -d -1 -p AODV -e 48 -c 2 -a 0 -i 0 -k RTR
h -t 1.001550421 -s 4 -d -1 -p AODV -e 48 -c 2 -a 0 -i 0 -k RTR
+ -t 1.002289893 -s 1 -d -1 -p AODV -e 48 -c 2 -a 0 -i 0 -k RTR 
- -t 1.002289893 -s 1 -d -1 -p AODV -e 48 -c 2 -a 0 -i 0 -k RTR
h -t 1.002289893 -s 1 -d -1 -p AODV -e 48 -c 2 -a 0 -i 0 -k RTR
r -t 1.002818795 -s 0 -d -1 -p AODV -e 48 -c 2 -a 0 -i 0 -k RTR
r -t 1.002818798 -s 1 -d -1 -p AODV -e 48 -c 2 -a 0 -i 0 -k RTR
r -t 1.003717175 -s 4 -d -1 -p AODV -e 48 -c 2 -a 0 -i 0 -k RTR
r -t 1.003717465 -s 2 -d -1 -p AODV -e 48 -c 2 -a 0 -i 0 -k RTR
r -t 1.003717465 -s 0 -d -1 -p AODV -e 48 -c 2 -a 0 -i 0 -k RTR
+ -t 1.006063482 -s 2 -d -1 -p AODV -e 48 -c 2 -a 0 -i 0 -k RTR 
- -t 1.006063482 -s 2 -d -1 -p AODV -e 48 -c 2 -a 0 -i 0 -k RTR
h -t 1.006063482 -s 2 -d -1 -p AODV -e 48 -c 2 -a 0 -i 0 -k RTR
r -t 1.007371858 -s 5 -d -1 -p AODV -e 48 -c 2 -a 0 -i 0 -k RTR
r -t 1.007371951 -s 6 -d -1 -p AODV -e 48 -c 2 -a 0 -i 0 -k RTR
r -t 1.007372149 -s 1 -d -1 -p AODV -e 48 -c 2 -a 0 -i 0 -k RTR
r -t 1.007372152 -s 3 -d -1 -p AODV -e 48 -c 2 -a 0 -i 0 -k RTR
+ -t 1.007800098 -s 3 -d -1 -p AODV -e 48 -c 2 -a 0 -i 0 -k RTR 
- -t 1.007800098 -s 3 -d -1 -p AODV -e 48 -c 2 -a 0 -i 0 -k RTR
h -t 1.007800098 -s 3 -d -1 -p AODV -e 48 -c 2 -a 0 -i 0 -k RTR
r -t 1.008908431 -s 7 -d -1 -p AODV -e 48 -c 2 -a 0 -i 0 -k RTR
+ -t 1.008908431 -s 7 -d 3 -p AODV -e 44 -c 2 -a 0 -i 0 -k RTR 
- -t 1.008908431 -s 7 -d 3 -p AODV -e 44 -c 2 -a 0 -i 0 -k RTR
h -t 1.008908431 -s 7 -d 3 -p AODV -e 44 -c 2 -a 0 -i 0 -k RTR
r -t 1.008908475 -s 5 -d -1 -p AODV -e 48 -c 2 -a 0 -i 0 -k RTR
r -t 1.008908567 -s 6 -d -1 -p AODV -e 48 -c 2 -a 0 -i 0 -k RTR
r -t 1.008908768 -s 2 -d -1 -p AODV -e 48 -c 2 -a 0 -i 0 -k RTR
+ -t 1.009013405 -s 6 -d -1 -p AODV -e 48 -c 2 -a 0 -i 0 -k RTR 
- -t 1.009013405 -s 6 -d -1 -p AODV -e 48 -c 2 -a 0 -i 0 -k RTR
h -t 1.009013405 -s 6 -d -1 -p AODV -e 48 -c 2 -a 0 -i 0 -k RTR
r -t 1.010875644 -s 3 -d -1 -p AODV -e 48 -c 2 -a 0 -i 0 -k RTR
r -t 1.010875644 -s 2 -d -1 -p AODV -e 48 -c 2 -a 0 -i 0 -k RTR
r -t 1.010875675 -s 5 -d -1 -p AODV -e 48 -c 2 -a 0 -i 0 -k RTR
r -t 1.010875919 -s 7 -d -1 -p AODV -e 48 -c 2 -a 0 -i 0 -k RTR
+ -t 1.014567644 -s 3 -d 2 -p AODV -e 44 -c 2 -a 0 -i 0 -k RTR 
- -t 1.014567644 -s 3 -d 2 -p AODV -e 44 -c 2 -a 0 -i 0 -k RTR
h -t 1.014567644 -s 3 -d 2 -p AODV -e 44 -c 2 -a 0 -i 0 -k RTR
+ -t 1.015735093 -s 5 -d -1 -p AODV -e 48 -c 2 -a 0 -i 0 -k RTR 
- -t 1.015735093 -s 5 -d -1 -p AODV -e 48 -c 2 -a 0 -i 0 -k RTR
h -t 1.015735093 -s 5 -d -1 -p AODV -e 48 -c 2 -a 0 -i 0 -k RTR
r -t 1.016738397 -s 2 -d -1 -p AODV -e 48 -c 2 -a 0 -i 0 -k RTR
r -t 1.016738398 -s 3 -d -1 -p AODV -e 48 -c 2 -a 0 -i 0 -k RTR
r -t 1.016738521 -s 6 -d -1 -p AODV -e 48 -c 2 -a 0 -i 0 -k RTR
r -t 1.016738712 -s 7 -d -1 -p AODV -e 48 -c 2 -a 0 -i 0 -k RTR
+ -t 1.021032417 -s 2 -d 1 -p AODV -e 44 -c 2 -a 0 -i 0 -k RTR 
- -t 1.021032417 -s 2 -d 1 -p AODV -e 44 -c 2 -a 0 -i 0 -k RTR
h -t 1.021032417 -s 2 -d 1 -p AODV -e 44 -c 2 -a 0 -i 0 -k RTR
+ -t 1.026564084 -s 1 -d 0 -p AODV -e 44 -c 2 -a 0 -i 0 -k RTR 
- -t 1.026564084 -s 1 -d 0 -p AODV -e 44 -c 2 -a 0 -i 0 -k RTR
h -t 1.026564084 -s 1 -d 0 -p AODV -e 44 -c 2 -a 0 -i 0 -k RTR
+ -t 1.031175751 -s 0 -d 1 -p cbr -e 1020 -c 2 -a 0 -i 0 -k RTR 
- -t 1.031175751 -s 0 -d 1 -p cbr -e 1020 -c 2 -a 0 -i 0 -k RTR
h -t 1.031175751 -s 0 -d 1 -p cbr -e 1020 -c 2 -a 0 -i 0 -k RTR
+ -t 1.041281751 -s 1 -d 2 -p cbr -e 1020 -c 2 -a 0 -i 0 -k RTR 
- -t 1.041281751 -s 1 -d 2 -p cbr -e 1020 -c 2 -a 0 -i 0 -k RTR
h -t 1.041281751 -s 1 -d 2 -p cbr -e 1020 -c 2 -a 0 -i 0 -k RTR
+ -t 1.051147751 -s 2 -d 3 -p cbr -e 1020 -c 2 -a 0 -i 0 -k RTR 
- -t 1.051147751 -s 2 -d 3 -p cbr -e 1020 -c 2 -a 0 -i 0 -k RTR
h -t 1.051147751 -s 2 -d 3 -p cbr -e 1020 -c 2 -a 0 -i 0 -k RTR
+ -t 1.060873761 -s 3 -d 7 -p cbr -e 1020 -c 2 -a 0 -i 0 -k RTR 
- -t 1.060873761 -s 3 -d 7 -p cbr -e 1020 -c 2 -a 0 -i 0 -k RTR
h -t 1.060873761 -s 3 -d 7 -p cbr -e 1020 -c 2 -a 0 -i 0 -k RTR
r -t 1.070878761 -s 7 -d 7 -p cbr -e 1020 -c 2 -a 0 -i 0 -k AGT
+ -t 1.080000000 -s 0 -d -1 -p cbr -e 1000 -c 2 -a 0 -i 1 -k AGT 
- -t 1.080000000 -s 0 -d -1 -p cbr -e 1000 -c 2 -a 0 -i 1 -k AGT
h -t 1.080000000 -s 0 -d -1 -p cbr -e 1000 -c 2 -a 0 -i 1 -k AGT
+ -t 1.080000000 -s 0 -d 1 -p cbr -e 1020 -c 2 -a 0 -i 1 -k RTR 
- -t 1.080000000 -s 0 -d 1 -p cbr -e 1020 -c 2 -a 0 -i 1 -k RTR
h -t 1.080000000 -s 0 -d 1 -p cbr -e 1020 -c 2 -a 0 -i 1 -k RTR
+ -t 1.089582000 -s 1 -d 2 -p cbr -e 1020 -c 2 -a 0 -i 1 -k RTR 
- -t 1.089582000 -s 1 -d 2 -p cbr -e 1020 -c 2 -a 0 -i 1 -k RTR
h -t 1.089582000 -s 1 -d 2 -p cbr -e 1020 -c 2 -a 0 -i 1 -k RTR
+ -t 1.099528000 -s 2 -d 3 -p cbr -e 1020 -c 2 -a 0 -i 1 -k RTR 
- -t 1.099528000 -s 2 -d 3 -p cbr -e 1020 -c 2 -a 0 -i 1 -k RTR
h -t 1.099528000 -s 2 -d 3 -p cbr -e 1020 -c 2 -a 0 -i 1 -k RTR
+ -t 1.109194010 -s 3 -d 7 -p cbr -e 1020 -c 2 -a 0 -i 1 -k RTR 
- -t 1.109194010 -s 3 -d 7 -p cbr -e 1020 -c 2 -a 0 -i 1 -k RTR
h -t 1.109194010 -s 3 -d 7 -p cbr -e 1020 -c 2 -a 0 -i 1 -k RTR
r -t 1.119179010 -s 7 -d 7 -p cbr -e 1020 -c 2 -a 0 -i 1 -k AGT
+ -t 1.160000000 -s 0 -d -1 -p cbr -e 1000 -c 2 -a 0 -i 2 -k AGT 
- -t 1.160000000 -s 0 -d -1 -p cbr -e 1000 -c 2 -a 0 -i 2 -k AGT
h -t 1.160000000 -s 0 -d -1 -p cbr -e 1000 -c 2 -a 0 -i 2 -k AGT
+ -t 1.160000000 -s 0 -d 1 -p cbr -e 1020 -c 2 -a 0 -i 2 -k RTR 
- -t 1.160000000 -s 0 -d 1 -p cbr -e 1020 -c 2 -a 0 -i 2 -k RTR
h -t 1.160000000 -s 0 -d 1 -p cbr -e 1020 -c 2 -a 0 -i 2 -k RTR
+ -t 1.169482000 -s 1 -d 2 -p cbr -e 1020 -c 2 -a 0 -i 2 -k RTR 
- -t 1.169482000 -s 1 -d 2 -p cbr -e 1020 -c 2 -a 0 -i 2 -k RTR
h -t 1.169482000 -s 1 -d 2 -p cbr -e 1020 -c 2 -a 0 -i 2 -k RTR
+ -t 1.179448000 -s 2 -d 3 -p cbr -e 1020 -c 2 -a 0 -i 2 -k RTR 
- -t 1.179448000 -s 2 -d 3 -p cbr -e 1020 -c 2 -a 0 -i 2 -k RTR
h -t 1.179448000 -s 2 -d 3 -p cbr -e 1020 -c 2 -a 0 -i 2 -k RTR
+ -t 1.189354010 -s 3 -d 7 -p cbr -e 1020 -c 2 -a 0 -i 2 -k RTR 
- -t 1.189354010 -s 3 -d 7 -p cbr -e 1020 -c 2 -a 0 -i 2 -k RTR
h -t 1.189354010 -s 3 -d 7 -p cbr -e 1020 -c 2 -a 0 -i 2 -k RTR
r -t 1.199299010 -s 7 -d 7 -p cbr -e 1020 -c 2 -a 0 -i 2 -k AGT
+ -t 1.240000000 -s 0 -d -1 -p cbr -e 1000 -c 2 -a 0 -i 3 -k AGT 
- -t 1.240000000 -s 0 -d -1 -p cbr -e 1000 -c 2 -a 0 -i 3 -k AGT
h -t 1.240000000 -s 0 -d -1 -p cbr -e 1000 -c 2 -a 0 -i 3 -k AGT
+ -t 1.240000000 -s 0 -d 1 -p cbr -e 1020 -c 2 -a 0 -i 3 -k RTR 
- -t 1.240000000 -s 0 -d 1 -p cbr -e 1020 -c 2 -a 0 -i 3 -k RTR
h -t 1.240000000 -s 0 -d 1 -p cbr -e 1020 -c 2 -a 0 -i 3 -k RTR
+ -t 1.249642000 -s 1 -d 2 -p cbr -e 1020 -c 2 -a 0 -i 3 -k RTR 
- -t 1.249642000 -s 1 -d 2 -p cbr -e 1020 -c 2 -a 0 -i 3 -k RTR
h -t 1.249642000 -s 1 -d 2 -p cbr -e 1020 -c 2 -a 0 -i 3 -k RTR
+ -t 1.259428000 -s 2 -d 3 -p cbr -e 1020 -c 2 -a 0 -i 3 -k RTR 
- -t 1.259428000 -s 2 -d 3 -p cbr -e 1020 -c 2 -a 0 -i 3 -k RTR
h -t 1.259428000 -s 2 -d 3 -p cbr -e 1020 -c 2 -a 0 -i 3 -k RTR
+ -t 1.269134010 -s 3 -d 7 -p cbr -e 1020 -c 2 -a 0 -i 3 -k RTR 
- -t 1.269134010 -s 3 -d 7 -p cbr -e 1020 -c 2 -a 0 -i 3 -k RTR
h -t 1.269134010 -s 3 -d 7 -p cbr -e 1020 -c 2 -a 0 -i 3 -k RTR
r -t 1.278919010 -s 7 -d 7 -p cbr -e 1020 -c 2 -a 0 -i 3 -k AGT
+ -t 1.320000000 -s 0 -d -1 -p cbr -e 1000 -c 2 -a 0 -i 4 -k AGT 
- -t 1.320000000 -s 0 -d -1 -p cbr -e 1000 -c 2 -a 0 -i 4 -k AGT
h -t 1.320000000 -s 0 -d -1 -p cbr -e 1000 -c 2 -a 0 -i 4 -k AGT
+ -t 1.320000000 -s 0 -d 1 -p cbr -e 1020 -c 2 -a 0 -i 4 -k RTR 
- -t 1.320000000 -s 0 -d 1 -p cbr -e 1020 -c 2 -a 0 -i 4 -k RTR
h -t 1.320000000 -s 0 -d 1 -p cbr -e 1020 -c 2 -a 0 -i 4 -k RTR
+ -t 1.329482000 -s 1 -d 2 -p cbr -e 1020 -c 2 -a 0 -i 4 -k RTR 
- -t 1.329482000 -s 1 -d 2 -p cbr -e 1020 -c 2 -a 0 -i 4 -k RTR
h -t 1.329482000 -s 1 -d 2 -p cbr -e 1020 -c 2 -a 0 -i 4 -k RTR
+ -t 1.339408000 -s 2 -d 3 -p cbr -e 1020 -c 2 -a 0 -i 4 -k RTR 
- -t 1.339408000 -s 2 -d 3 -p cbr -e 1020 -c 2 -a 0 -i 4 -k RTR
h -t 1.339408000 -s 2 -d 3 -p cbr -e 1020 -c 2 -a 0 -i 4 -k RTR
+ -t 1.349134010 -s 3 -d 7 -p cbr -e 1020 -c 2 -a 0 -i 4 -k RTR 
- -t 1.349134010 -s 3 -d 7 -p cbr -e 1020 -c 2 -a 0 -i 4 -k RTR
h -t 1.349134010 -s 3 -d 7 -p cbr -e 1020 -c 2 -a 0 -i 4 -k RTR
r -t 1.359399010 -s 7 -d 7 -p cbr -e 1020 -c 2 -a 0 -i 4 -k AGT
+ -t 1.400000000 -s 0 -d -1 -p cbr -e 1000 -c 2 -a 0 -i 5 -k AGT 
- -t 1.400000000 -s 0 -d -1 -p cbr -e 1000 -c 2 -a 0 -i 5 -k AGT
h -t 1.400000000 -s 0 -d -1 -p cbr -e 1000 -c 2 -a 0 -i 5 -k AGT
+ -t 1.400000000 -s 0 -d 1 -p cbr -e 1020 -c 2 -a 0 -i 5 -k RTR 
- -t 1.400000000 -s 0 -d 1 -p cbr -e 1020 -c 2 -a 0 -i 5 -k RTR
h -t 1.400000000 -s 0 -d 1 -p cbr -e 1020 -c 2 -a 0 -i 5 -k RTR
+ -t 1.409982000 -s 1 -d 2 -p cbr -e 1020 -c 2 -a 0 -i 5 -k RTR 
- -t 1.409982000 -s 1 -d 2 -p cbr -e 1020 -c 2 -a 0 -i 5 -k RTR
h -t 1.409982000 -s 1 -d 2 -p cbr -e 1020 -c 2 -a 0 -i 5 -k RTR
+ -t 1.419768000 -s 2 -d 3 -p cbr -e 1020 -c 2 -a 0 -i 5 -k RTR 
- -t 1.419768000 -s 2 -d 3 -p cbr -e 1020 -c 2 -a 0 -i 5 -k RTR
h -t 1.419768000 -s 2 -d 3 -p cbr -e 1020 -c 2 -a 0 -i 5 -k RTR
+ -t 1.429874010 -s 3 -d 7 -p cbr -e 1020 -c 2 -a 0 -i 5 -k RTR 
- -t 1.429874010 -s 3 -d 7 -p cbr -e 1020 -c 2 -a 0 -i 5 -k RTR
h -t 1.429874010 -s 3 -d 7 -p cbr -e 1020 -c 2 -a 0 -i 5 -k RTR
r -t 1.439839010 -s 7 -d 7 -p cbr -e 1020 -c 2 -a 0 -i 5 -k AGT
+ -t 1.480000000 -s 0 -d -1 -p cbr -e 1000 -c 2 -a 0 -i 6 -k AGT 
- -t 1.480000000 -s 0 -d -1 -p cbr -e 1000 -c 2 -a 0 -i 6 -k AGT
h -t 1.480000000 -s 0 -d -1 -p cbr -e 1000 -c 2 -a 0 -i 6 -k AGT
+ -t 1.480000000 -s 0 -d 1 -p cbr -e 1020 -c 2 -a 0 -i 6 -k RTR 
- -t 1.480000000 -s 0 -d 1 -p cbr -e 1020 -c 2 -a 0 -i 6 -k RTR
h -t 1.480000000 -s 0 -d 1 -p cbr -e 1020 -c 2 -a 0 -i 6 -k RTR
+ -t 1.489742000 -s 1 -d 2 -p cbr -e 1020 -c 2 -a 0 -i 6 -k RTR 
- -t 1.489742000 -s 1 -d 2 -p cbr -e 1020 -c 2 -a 0 -i 6 -k RTR
h -t 1.489742000 -s 1 -d 2 -p cbr -e 1020 -c 2 -a 0 -i 6 -k RTR
+ -t 1.499448000 -s 2 -d 3 -p cbr -e 1020 -c 2 -a 0 -i 6 -k RTR 
- -t 1.499448000 -s 2 -d 3 -p cbr -e 1020 -c 2 -a 0 -i 6 -k RTR
h -t 1.499448000 -s 2 -d 3 -p cbr -e 1020 -c 2 -a 0 -i 6 -k RTR
+ -t 1.509334010 -s 3 -d 7 -p cbr -e 1020 -c 2 -a 0 -i 6 -k RTR 
- -t 1.509334010 -s 3 -d 7 -p cbr -e 1020 -c 2 -a 0 -i 6 -k RTR
h -t 1.509334010 -s 3 -d 7 -p cbr -e 1020 -c 2 -a 0 -i 6 -k RTR
r -t 1.519159010 -s 7 -d 7 -p cbr -e 1020 -c 2 -a 0 -i 6 -k AGT
+ -t 1.560000000 -s 0 -d -1 -p cbr -e 1000 -c 2 -a 0 -i 7 -k AGT 
- -t 1.560000000 -s 0 -d -1 -p cbr -e 1000 -c 2 -a 0 -i 7 -k AGT
h -t 1.560000000 -s 0 -d -1 -p cbr -e 1000 -c 2 -a 0 -i 7 -k AGT
+ -t 1.560000000 -s 0 -d 1 -p cbr -e 1020 -c 2 -a 0 -i 7 -k RTR 
- -t 1.560000000 -s 0 -d 1 -p cbr -e 1020 -c 2 -a 0 -i 7 -k RTR
h -t 1.560000000 -s 0 -d 1 -p cbr -e 1020 -c 2 -a 0 -i 7 -k RTR
+ -t 1.569522000 -s 1 -d 2 -p cbr -e 1020 -c 2 -a 0 -i 7 -k RTR 
- -t 1.569522000 -s 1 -d 2 -p cbr -e 1020 -c 2 -a 0 -i 7 -k RTR
h -t 1.569522000 -s 1 -d 2 -p cbr -e 1020 -c 2 -a 0 -i 7 -k RTR
+ -t 1.579348000 -s 2 -d 3 -p cbr -e 1020 -c 2 -a 0 -i 7 -k RTR 
- -t 1.579348000 -s 2 -d 3 -p cbr -e 1020 -c 2 -a 0 -i 7 -k RTR
h -t 1.579348000 -s 2 -d 3 -p cbr -e 1020 -c 2 -a 0 -i 7 -k RTR
+ -t 1.589014010 -s 3 -d 7 -p cbr -e 1020 -c 2 -a 0 -i 7 -k RTR 
- -t 1.589014010 -s 3 -d 7 -p cbr -e 1020 -c 2 -a 0 -i 7 -k RTR
h -t 1.589014010 -s 3 -d 7 -p cbr -e 1020 -c 2 -a 0 -i 7 -k RTR
r -t 1.599039010 -s 7 -d 7 -p cbr -e 1020 -c 2 -a 0 -i 7 -k AGT
+ -t 1.640000000 -s 0 -d -1 -p cbr -e 1000 -c 2 -a 0 -i 8 -k AGT 
- -t 1.640000000 -s 0 -d -1 -p cbr -e 1000 -c 2 -a 0 -i 8 -k AGT
h -t 1.640000000 -s 0 -d -1 -p cbr -e 1000 -c 2 -a 0 -i 8 -k AGT
+ -t 1.640000000 -s 0 -d 1 -p cbr -e 1020 -c 2 -a 0 -i 8 -k RTR 
- -t 1.640000000 -s 0 -d 1 -p cbr -e 1020 -c 2 -a 0 -i 8 -k RTR
h -t 1.640000000 -s 0 -d 1 -p cbr -e 1020 -c 2 -a 0 -i 8 -k RTR
+ -t 1.649902000 -s 1 -d 2 -p cbr -e 1020 -c 2 -a 0 -i 8 -k RTR 
- -t 1.649902000 -s 1 -d 2 -p cbr -e 1020 -c 2 -a 0 -i 8 -k RTR
h -t 1.649902000 -s 1 -d 2 -p cbr -e 1020 -c 2 -a 0 -i 8 -k RTR
+ -t 1.659888000 -s 2 -d 3 -p cbr -e 1020 -c 2 -a 0 -i 8 -k RTR 
- -t 1.659888000 -s 2 -d 3 -p cbr -e 1020 -c 2 -a 0 -i 8 -k RTR
h -t 1.659888000 -s 2 -d 3 -p cbr -e 1020 -c 2 -a 0 -i 8 -k RTR
+ -t 1.669574010 -s 3 -d 7 -p cbr -e 1020 -c 2 -a 0 -i 8 -k RTR 
- -t 1.669574010 -s 3 -d 7 -p cbr -e 1020 -c 2 -a 0 -i 8 -k RTR
h -t 1.669574010 -s 3 -d 7 -p cbr -e 1020 -c 2 -a 0 -i 8 -k RTR
r -t 1.679339010 -s 7 -d 7 -p cbr -e 1020 -c 2 -a 0 -i 8 -k AGT
+ -t 1.720000000 -s 0 -d -1 -p cbr -e 1000 -c 2 -a 0 -i 9 -k AGT 
- -t 1.720000000 -s 0 -d -1 -p cbr -e 1000 -c 2 -a 0 -i 9 -k AGT
h -t 1.720000000 -s 0 -d -1 -p cbr -e 1000 -c 2 -a 0 -i 9 -k AGT
+ -t 1.720000000 -s 0 -d 1 -p cbr -e 1020 -c 2 -a 0 -i 9 -k RTR 
- -t 1.720000000 -s 0 -d 1 -p cbr -e 1020 -c 2 -a 0 -i 9 -k RTR
h -t 1.720000000 -s 0 -d 1 -p cbr -e 1020 -c 2 -a 0 -i 9 -k RTR
+ -t 1.729922000 -s 1 -d 2 -p cbr -e 1020 -c 2 -a 0 -i 9 -k RTR 
- -t 1.729922000 -s 1 -d 2 -p cbr -e 1020 -c 2 -a 0 -i 9 -k RTR
h -t 1.729922000 -s 1 -d 2 -p cbr -e 1020 -c 2 -a 0 -i 9 -k RTR
+ -t 1.740188000 -s 2 -d 3 -p cbr -e 1020 -c 2 -a 0 -i 9 -k RTR 
- -t 1.740188000 -s 2 -d 3 -p cbr -e 1020 -c 2 -a 0 -i 9 -k RTR
h -t 1.740188000 -s 2 -d 3 -p cbr -e 1020 -c 2 -a 0 -i 9 -k RTR
+ -t 1.749874010 -s 3 -d 7 -p cbr -e 1020 -c 2 -a 0 -i 9 -k RTR 
- -t 1.749874010 -s 3 -d 7 -p cbr -e 1020 -c 2 -a 0 -i 9 -k RTR
h -t 1.749874010 -s 3 -d 7 -p cbr -e 1020 -c 2 -a 0 -i 9 -k RTR
r -t 1.759599010 -s 7 -d 7 -p cbr -e 1020 -c 2 -a 0 -i 9 -k AGT
+ -t 1.800000000 -s 0 -d -1 -p cbr -e 1000 -c 2 -a 0 -i 10 -k AGT 
- -t 1.800000000 -s 0 -d -1 -p cbr -e 1000 -c 2 -a 0 -i 10 -k AGT
h -t 1.800000000 -s 0 -d -1 -p cbr -e 1000 -c 2 -a 0 -i 10 -k AGT
+ -t 1.800000000 -s 0 -d 1 -p cbr -e 1020 -c 2 -a 0 -i 10 -k RTR 
- -t 1.800000000 -s 0 -d 1 -p cbr -e 1020 -c 2 -a 0 -i 10 -k RTR
h -t 1.800000000 -s 0 -d 1 -p cbr -e 1020 -c 2 -a 0 -i 10 -k RTR
+ -t 1.809422000 -s 1 -d 2 -p cbr -e 1020 -c 2 -a 0 -i 10 -k RTR 
- -t 1.809422000 -s 1 -d 2 -p cbr -e 1020 -c 2 -a 0 -i 10 -k RTR
h -t 1.809422000 -s 1 -d 2 -p cbr -e 1020 -c 2 -a 0 -i 10 -k RTR
+ -t 1.819468000 -s 2 -d 3 -p cbr -e 1020 -c 2 -a 0 -i 10 -k RTR 
- -t 1.819468000 -s 2 -d 3 -p cbr -e 1020 -c 2 -a 0 -i 10 -k RTR
h -t 1.819468000 -s 2 -d 3 -p cbr -e 1020 -c 2 -a 0 -i 10 -k RTR
+ -t 1.829514010 -s 3 -d 7 -p cbr -e 1020 -c 2 -a 0 -i 10 -k RTR 
- -t 1.829514010 -s 3 -d 7 -p cbr -e 1020 -c 2 -a 0 -i 10 -k RTR
h -t 1.829514010 -s 3 -d 7 -p cbr -e 1020 -c 2 -a 0 -i 10 -k RTR
r -t 1.839499010 -s 7 -d 7 -p cbr -e 1020 -c 2 -a 0 -i 10 -k AGT
+ -t 1.880000000 -s 0 -d -1 -p cbr -e 1000 -c 2 -a 0 -i 11 -k AGT 
- -t 1.880000000 -s 0 -d -1 -p cbr -e 1000 -c 2 -a 0 -i 11 -k AGT
h -t 1.880000000 -s 0 -d -1 -p cbr -e 1000 -c 2 -a 0 -i 11 -k AGT
+ -t 1.880000000 -s 0 -d 1 -p cbr -e 1020 -c 2 -a 0 -i 11 -k RTR 
- -t 1.880000000 -s 0 -d 1 -p cbr -e 1020 -c 2 -a 0 -i 11 -k RTR
h -t 1.880000000 -s 0 -d 1 -p cbr -e 1020 -c 2 -a 0 -i 11 -k RTR
+ -t 1.889582000 -s 1 -d 2 -p cbr -e 1020 -c 2 -a 0 -i 11 -k RTR 
- -t 1.889582000 -s 1 -d 2 -p cbr -e 1020 -c 2 -a 0 -i 11 -k RTR
h -t 1.889582000 -s 1 -d 2 -p cbr -e 1020 -c 2 -a 0 -i 11 -k RTR
+ -t 1.899388000 -s 2 -d 3 -p cbr -e 1020 -c 2 -a 0 -i 11 -k RTR 
- -t 1.899388000 -s 2 -d 3 -p cbr -e 1020 -c 2 -a 0 -i 11 -k RTR
h -t 1.899388000 -s 2 -d 3 -p cbr -e 1020 -c 2 -a 0 -i 11 -k RTR
+ -t 1.909054010 -s 3 -d 7 -p cbr -e 1020 -c 2 -a 0 -i 11 -k RTR 
- -t 1.909054010 -s 3 -d 7 -p cbr -e 1020 -c 2 -a 0 -i 11 -k RTR
h -t 1.909054010 -s 3 -d 7 -p cbr -e 1020 -c 2 -a 0 -i 11 -k RTR
r -t 1.918719010 -s 7 -d 7 -p cbr -e 1020 -c 2 -a 0 -i 11 -k AGT
+ -t 1.960000000 -s 0 -d -1 -p cbr -e 1000 -c 2 -a 0 -i 12 -k AGT 
- -t 1.960000000 -s 0 -d -1 -p cbr -e 1000 -c 2 -a 0 -i 12 -k AGT
h -t 1.960000000 -s 0 -d -1 -p cbr -e 1000 -c 2 -a 0 -i 12 -k AGT
+ -t 1.960000000 -s 0 -d 1 -p cbr -e 1020 -c 2 -a 0 -i 12 -k RTR 
- -t 1.960000000 -s 0 -d 1 -p cbr -e 1020 -c 2 -a 0 -i 12 -k RTR
h -t 1.960000000 -s 0 -d 1 -p cbr -e 1020 -c 2 -a 0 -i 12 -k RTR
+ -t 1.969982000 -s 1 -d 2 -p cbr -e 1020 -c 2 -a 0 -i 12 -k RTR 
- -t 1.969982000 -s 1 -d 2 -p cbr -e 1020 -c 2 -a 0 -i 12 -k RTR
h -t 1.969982000 -s 1 -d 2 -p cbr -e 1020 -c 2 -a 0 -i 12 -k RTR
+ -t 1.980228000 -s 2 -d 3 -p cbr -e 1020 -c 2 -a 0 -i 12 -k RTR 
- -t 1.980228000 -s 2 -d 3 -p cbr -e 1020 -c 2 -a 0 -i 12 -k RTR
h -t 1.980228000 -s 2 -d 3 -p cbr -e 1020 -c 2 -a 0 -i 12 -k RTR
+ -t 1.990414010 -s 3 -d 7 -p cbr -e 1020 -c 2 -a 0 -i 12 -k RTR 
- -t 1.990414010 -s 3 -d 7 -p cbr -e 1020 -c 2 -a 0 -i 12 -k RTR
h -t 1.990414010 -s 3 -d 7 -p cbr -e 1020 -c 2 -a 0 -i 12 -k RTR
r -t 2.000319010 -s 7 -d 7 -p cbr -e 1020 -c 2 -a 0 -i 12 -k AGT
+ -t 2.040000000 -s 0 -d -1 -p cbr -e 1000 -c 2 -a 0 -i 13 -k AGT 
- -t 2.040000000 -s 0 -d -1 -p cbr -e 1000 -c 2 -a 0 -i 13 -k AGT
h -t 2.040000000 -s 0 -d -1 -p cbr -e 1000 -c 2 -a 0 -i 13 -k AGT
+ -t 2.040000000 -s 0 -d 1 -p cbr -e 1020 -c 2 -a 0 -i 13 -k RTR 
- -t 2.040000000 -s 0 -d 1 -p cbr -e 1020 -c 2 -a 0 -i 13 -k RTR
h -t 2.040000000 -s 0 -d 1 -p cbr -e 1020 -c 2 -a 0 -i 13 -k RTR
+ -t 2.049582000 -s 1 -d 2 -p cbr -e 1020 -c 2 -a 0 -i 13 -k RTR 
- -t 2.049582000 -s 1 -d 2 -p cbr -e 1020 -c 2 -a 0 -i 13 -k RTR
h -t 2.049582000 -s 1 -d 2 -p cbr -e 1020 -c 2 -a 0 -i 13 -k RTR
+ -t 2.059248000 -s 2 -d 3 -p cbr -e 1020 -c 2 -a 0 -i 13 -k RTR 
- -t 2.059248000 -s 2 -d 3 -p cbr -e 1020 -c 2 -a 0 -i 13 -k RTR
h -t 2.059248000 -s 2 -d 3 -p cbr -e 1020 -c 2 -a 0 -i 13 -k RTR
+ -t 2.069414010 -s 3 -d 7 -p cbr -e 1020 -c 2 -a 0 -i 13 -k RTR 
- -t 2.069414010 -s 3 -d 7 -p cbr -e 1020 -c 2 -a 0 -i 13 -k RTR
h -t 2.069414010 -s 3 -d 7 -p cbr -e 1020 -c 2 -a 0 -i 13 -k RTR
r -t 2.079079010 -s 7 -d 7 -p cbr -e 1020 -c 2 -a 0 -i 13 -k AGT
+ -t 2.120000000 -s 0 -d -1 -p cbr -e 1000 -c 2 -a 0 -i 14 -k AGT 
- -t 2.120000000 -s 0 -d -1 -p cbr -e 1000 -c 2 -a 0 -i 14 -k AGT
h -t 2.120000000 -s 0 -d -1 -p cbr -e 1000 -c 2 -a 0 -i 14 -k AGT
+ -t 2.120000000 -s 0 -d 1 -p cbr -e 1020 -c 2 -a 0 -i 14 -k RTR 
- -t 2.120000000 -s 0 -d 1 -p cbr -e 1020 -c 2 -a 0 -i 14 -k RTR
h -t 2.120000000 -s 0 -d 1 -p cbr -e 1020 -c 2 -a 0 -i 14 -k RTR
+ -t 2.129562000 -s 1 -d 2 -p cbr -e 1020 -c 2 -a 0 -i 14 -k RTR 
- -t 2.129562000 -s 1 -d 2 -p cbr -e 1020 -c 2 -a 0 -i 14 -k RTR
h -t 2.129562000 -s 1 -d 2 -p cbr -e 1020 -c 2 -a 0 -i 14 -k RTR
+ -t 2.139728000 -s 2 -d 3 -p cbr -e 1020 -c 2 -a 0 -i 14 -k RTR 
- -t 2.139728000 -s 2 -d 3 -p cbr -e 1020 -c 2 -a 0 -i 14 -k RTR
h -t 2.139728000 -s 2 -d 3 -p cbr -e 1020 -c 2 -a 0 -i 14 -k RTR
+ -t 2.149534010 -s 3 -d 7 -p cbr -e 1020 -c 2 -a 0 -i 14 -k RTR 
- -t 2.149534010 -s 3 -d 7 -p cbr -e 1020 -c 2 -a 0 -i 14 -k RTR
h -t 2.149534010 -s 3 -d 7 -p cbr -e 1020 -c 2 -a 0 -i 14 -k RTR
r -t 2.159739010 -s 7 -d 7 -p cbr -e 1020 -c 2 -a 0 -i 14 -k AGT
+ -t 2.200000000 -s 0 -d -1 -p cbr -e 1000 -c 2 -a 0 -i 15 -k AGT 
- -t 2.200000000 -s 0 -d -1 -p cbr -e 1000 -c 2 -a 0 -i 15 -k AGT
h -t 2.200000000 -s 0 -d -1 -p cbr -e 1000 -c 2 -a 0 -i 15 -k AGT
+ -t 2.200000000 -s 0 -d 1 -p cbr -e 1020 -c 2 -a 0 -i 15 -k RTR 
- -t 2.200000000 -s 0 -d 1 -p cbr -e 1020 -c 2 -a 0 -i 15 -k RTR
h -t 2.200000000 -s 0 -d 1 -p cbr -e 1020 -c 2 -a 0 -i 15 -k RTR
+ -t 2.209762000 -s 1 -d 2 -p cbr -e 1020 -c 2 -a 0 -i 15 -k RTR 
- -t 2.209762000 -s 1 -d 2 -p cbr -e 1020 -c 2 -a 0 -i 15 -k RTR
h -t 2.209762000 -s 1 -d 2 -p cbr -e 1020 -c 2 -a 0 -i 15 -k RTR
+ -t 2.219428000 -s 2 -d 3 -p cbr -e 1020 -c 2 -a 0 -i 15 -k RTR 
- -t 2.219428000 -s 2 -d 3 -p cbr -e 1020 -c 2 -a 0 -i 15 -k RTR
h -t 2.219428000 -s 2 -d 3 -p cbr -e 1020 -c 2 -a 0 -i 15 -k RTR
+ -t 2.229654010 -s 3 -d 7 -p cbr -e 1020 -c 2 -a 0 -i 15 -k RTR 
- -t 2.229654010 -s 3 -d 7 -p cbr -e 1020 -c 2 -a 0 -i 15 -k RTR
h -t 2.229654010 -s 3 -d 7 -p cbr -e 1020 -c 2 -a 0 -i 15 -k RTR
r -t 2.239659010 -s 7 -d 7 -p cbr -e 1020 -c 2 -a 0 -i 15 -k AGT
+ -t 2.280000000 -s 0 -d -1 -p cbr -e 1000 -c 2 -a 0 -i 16 -k AGT 
- -t 2.280000000 -s 0 -d -1 -p cbr -e 1000 -c 2 -a 0 -i 16 -k AGT
h -t 2.280000000 -s 0 -d -1 -p cbr -e 1000 -c 2 -a 0 -i 16 -k AGT
+ -t 2.280000000 -s 0 -d 1 -p cbr -e 1020 -c 2 -a 0 -i 16 -k RTR 
- -t 2.280000000 -s 0 -d 1 -p cbr -e 1020 -c 2 -a 0 -i 16 -k RTR
h -t 2.280000000 -s 0 -d 1 -p cbr -e 1020 -c 2 -a 0 -i 16 -k RTR
+ -t 2.289442000 -s 1 -d 2 -p cbr -e 1020 -c 2 -a 0 -i 16 -k RTR 
- -t 2.289442000 -s 1 -d 2 -p cbr -e 1020 -c 2 -a 0 -i 16 -k RTR
h -t 2.289442000 -s 1 -d 2 -p cbr -e 1020 -c 2 -a 0 -i 16 -k RTR
+ -t 2.299628000 -s 2 -d 3 -p cbr -e 1020 -c 2 -a 0 -i 16 -k RTR 
- -t 2.299628000 -s 2 -d 3 -p cbr -e 1020 -c 2 -a 0 -i 16 -k RTR
h -t 2.299628000 -s 2 -d 3 -p cbr -e 1020 -c 2 -a 0 -i 16 -k RTR
+ -t 2.309374010 -s 3 -d 7 -p cbr -e 1020 -c 2 -a 0 -i 16 -k RTR 
- -t 2.309374010 -s 3 -d 7 -p cbr -e 1020 -c 2 -a 0 -i 16 -k RTR
h -t 2.309374010 -s 3 -d 7 -p cbr -e 1020 -c 2 -a 0 -i 16 -k RTR
r -t 2.319039010 -s 7 -d 7 -p cbr -e 1020 -c 2 -a 0 -i 16 -k AGT
+ -t 2.360000000 -s 0 -d -1 -p cbr -e 1000 -c 2 -a 0 -i 17 -k AGT 
- -t 2.360000000 -s 0 -d -1 -p cbr -e 1000 -c 2 -a 0 -i 17 -k AGT
h -t 2.360000000 -s 0 -d -1 -p cbr -e 1000 -c 2 -a 0 -i 17 -k AGT
+ -t 2.360000000 -s 0 -d 1 -p cbr -e 1020 -c 2 -a 0 -i 17 -k RTR 
- -t 2.360000000 -s 0 -d 1 -p cbr -e 1020 -c 2 -a 0 -i 17 -k RTR
h -t 2.360000000 -s 0 -d 1 -p cbr -e 1020 -c 2 -a 0 -i 17 -k RTR
+ -t 2.369782000 -s 1 -d 2 -p cbr -e 1020 -c 2 -a 0 -i 17 -k RTR 
- -t 2.369782000 -s 1 -d 2 -p cbr -e 1020 -c 2 -a 0 -i 17 -k RTR
h -t 2.369782000 -s 1 -d 2 -p cbr -e 1020 -c 2 -a 0 -i 17 -k RTR
+ -t 2.379508000 -s 2 -d 3 -p cbr -e 1020 -c 2 -a 0 -i 17 -k RTR 
- -t 2.379508000 -s 2 -d 3 -p cbr -e 1020 -c 2 -a 0 -i 17 -k RTR
h -t 2.379508000 -s 2 -d 3 -p cbr -e 1020 -c 2 -a 0 -i 17 -k RTR
+ -t 2.389574010 -s 3 -d 7 -p cbr -e 1020 -c 2 -a 0 -i 17 -k RTR 
- -t 2.389574010 -s 3 -d 7 -p cbr -e 1020 -c 2 -a 0 -i 17 -k RTR
h -t 2.389574010 -s 3 -d 7 -p cbr -e 1020 -c 2 -a 0 -i 17 -k RTR
r -t 2.399699010 -s 7 -d 7 -p cbr -e 1020 -c 2 -a 0 -i 17 -k AGT
+ -t 2.440000000 -s 0 -d -1 -p cbr -e 1000 -c 2 -a 0 -i 18 -k AGT 
- -t 2.440000000 -s 0 -d -1 -p cbr -e 1000 -c 2 -a 0 -i 18 -k AGT
h -t 2.440000000 -s 0 -d -1 -p cbr -e 1000 -c 2 -a 0 -i 18 -k AGT
+ -t 2.440000000 -s 0 -d 1 -p cbr -e 1020 -c 2 -a 0 -i 18 -k RTR 
- -t 2.440000000 -s 0 -d 1 -p cbr -e 1020 -c 2 -a 0 -i 18 -k RTR
h -t 2.440000000 -s 0 -d 1 -p cbr -e 1020 -c 2 -a 0 -i 18 -k RTR
+ -t 2.449482000 -s 1 -d 2 -p cbr -e 1020 -c 2 -a 0 -i 18 -k RTR 
- -t 2.449482000 -s 1 -d 2 -p cbr -e 1020 -c 2 -a 0 -i 18 -k RTR
h -t 2.449482000 -s 1 -d 2 -p cbr -e 1020 -c 2 -a 0 -i 18 -k RTR
+ -t 2.459708000 -s 2 -d 3 -p cbr -e 1020 -c 2 -a 0 -i 18 -k RTR 
- -t 2.459708000 -s 2 -d 3 -p cbr -e 1020 -c 2 -a 0 -i 18 -k RTR
h -t 2.459708000 -s 2 -d 3 -p cbr -e 1020 -c 2 -a 0 -i 18 -k RTR
+ -t 2.469714010 -s 3 -d 7 -p cbr -e 1020 -c 2 -a 0 -i 18 -k RTR 
- -t 2.469714010 -s 3 -d 7 -p cbr -e 1020 -c 2 -a 0 -i 18 -k RTR
h -t 2.469714010 -s 3 -d 7 -p cbr -e 1020 -c 2 -a 0 -i 18 -k RTR
r -t 2.479739010 -s 7 -d 7 -p cbr -e 1020 -c 2 -a 0 -i 18 -k AGT
+ -t 2.520000000 -s 0 -d -1 -p cbr -e 1000 -c 2 -a 0 -i 19 -k AGT 
- -t 2.520000000 -s 0 -d -1 -p cbr -e 1000 -c 2 -a 0 -i 19 -k AGT
h -t 2.520000000 -s 0 -d -1 -p cbr -e 1000 -c 2 -a 0 -i 19 -k AGT
+ -t 2.520000000 -s 0 -d 1 -p cbr -e 1020 -c 2 -a 0 -i 19 -k RTR 
- -t 2.520000000 -s 0 -d 1 -p cbr -e 1020 -c 2 -a 0 -i 19 -k RTR
h -t 2.520000000 -s 0 -d 1 -p cbr -e 1020 -c 2 -a 0 -i 19 -k RTR
+ -t 2.529922000 -s 1 -d 2 -p cbr -e 1020 -c 2 -a 0 -i 19 -k RTR 
- -t 2.529922000 -s 1 -d 2 -p cbr -e 1020 -c 2 -a 0 -i 19 -k RTR
h -t 2.529922000 -s 1 -d 2 -p cbr -e 1020 -c 2 -a 0 -i 19 -k RTR
+ -t 2.539628000 -s 2 -d 3 -p cbr -e 1020 -c 2 -a 0 -i 19 -k RTR 
- -t 2.539628000 -s 2 -d 3 -p cbr -e 1020 -c 2 -a 0 -i 19 -k RTR
h -t 2.539628000 -s 2 -d 3 -p cbr -e 1020 -c 2 -a 0 -i 19 -k RTR
+ -t 2.549754010 -s 3 -d 7 -p cbr -e 1020 -c 2 -a 0 -i 19 -k RTR 
- -t 2.549754010 -s 3 -d 7 -p cbr -e 1020 -c 2 -a 0 -i 19 -k RTR
h -t 2.549754010 -s 3 -d 7 -p cbr -e 1020 -c 2 -a 0 -i 19 -k RTR
r -t 2.559939010 -s 7 -d 7 -p cbr -e 1020 -c 2 -a 0 -i 19 -k AGT
+ -t 2.600000000 -s 0 -d -1 -p cbr -e 1000 -c 2 -a 0 -i 20 -k AGT 
- -t 2.600000000 -s 0 -d -1 -p cbr -e 1000 -c 2 -a 0 -i 20 -k AGT
h -t 2.600000000 -s 0 -d -1 -p cbr -e 1000 -c 2 -a 0 -i 20 -k AGT
+ -t 2.600000000 -s 0 -d 1 -p cbr -e 1020 -c 2 -a 0 -i 20 -k RTR 
- -t 2.600000000 -s 0 -d 1 -p cbr -e 1020 -c 2 -a 0 -i 20 -k RTR
h -t 2.600000000 -s 0 -d 1 -p cbr -e 1020 -c 2 -a 0 -i 20 -k RTR
+ -t 2.609442000 -s 1 -d 2 -p cbr -e 1020 -c 2 -a 0 -i 20 -k RTR 
- -t 2.609442000 -s 1 -d 2 -p cbr -e 1020 -c 2 -a 0 -i 20 -k RTR
h -t 2.609442000 -s 1 -d 2 -p cbr -e 1020 -c 2 -a 0 -i 20 -k RTR
+ -t 2.619368000 -s 2 -d 3 -p cbr -e 1020 -c 2 -a 0 -i 20 -k RTR 
- -t 2.619368000 -s 2 -d 3 -p cbr -e 1020 -c 2 -a 0 -i 20 -k RTR
h -t 2.619368000 -s 2 -d 3 -p cbr -e 1020 -c 2 -a 0 -i 20 -k RTR
+ -t 2.629394010 -s 3 -d 7 -p cbr -e 1020 -c 2 -a 0 -i 20 -k RTR 
- -t 2.629394010 -s 3 -d 7 -p cbr -e 1020 -c 2 -a 0 -i 20 -k RTR
h -t 2.629394010 -s 3 -d 7 -p cbr -e 1020 -c 2 -a 0 -i 20 -k RTR
r -t 2.639399010 -s 7 -d 7 -p cbr -e 1020 -c 2 -a 0 -i 20 -k AGT
+ -t 2.680000000 -s 0 -d -1 -p cbr -e 1000 -c 2 -a 0 -i 21 -k AGT 
- -t 2.680000000 -s 0 -d -1 -p cbr -e 1000 -c 2 -a 0 -i 21 -k AGT
h -t 2.680000000 -s 0 -d -1 -p cbr -e 1000 -c 2 -a 0 -i 21 -k AGT
+ -t 2.680000000 -s 0 -d 1 -p cbr -e 1020 -c 2 -a 0 -i 21 -k RTR 
- -t 2.680000000 -s 0 -d 1 -p cbr -e 1020 -c 2 -a 0 -i 21 -k RTR
h -t 2.680000000 -s 0 -d 1 -p cbr -e 1020 -c 2 -a 0 -i 21 -k RTR
+ -t 2.689762000 -s 1 -d 2 -p cbr -e 1020 -c 2 -a 0 -i 21 -k RTR 
- -t 2.689762000 -s 1 -d 2 -p cbr -e 1020 -c 2 -a 0 -i 21 -k RTR
h -t 2.689762000 -s 1 -d 2 -p cbr -e 1020 -c 2 -a 0 -i 21 -k RTR
+ -t 2.699908000 -s 2 -d 3 -p cbr -e 1020 -c 2 -a 0 -i 21 -k RTR 
- -t 2.699908000 -s 2 -d 3 -p cbr -e 1020 -c 2 -a 0 -i 21 -k RTR
h -t 2.699908000 -s 2 -d 3 -p cbr -e 1020 -c 2 -a 0 -i 21 -k RTR
+ -t 2.709834010 -s 3 -d 7 -p cbr -e 1020 -c 2 -a 0 -i 21 -k RTR 
- -t 2.709834010 -s 3 -d 7 -p cbr -e 1020 -c 2 -a 0 -i 21 -k RTR
h -t 2.709834010 -s 3 -d 7 -p cbr -e 1020 -c 2 -a 0 -i 21 -k RTR
r -t 2.719919010 -s 7 -d 7 -p cbr -e 1020 -c 2 -a 0 -i 21 -k AGT
+ -t 2.760000000 -s 0 -d -1 -p cbr -e 1000 -c 2 -a 0 -i 22 -k AGT 
- -t 2.760000000 -s 0 -d -1 -p cbr -e 1000 -c 2 -a 0 -i 22 -k AGT
h -t 2.760000000 -s 0 -d -1 -p cbr -e 1000 -c 2 -a 0 -i 22 -k AGT
+ -t 2.760000000 -s 0 -d 1 -p cbr -e 1020 -c 2 -a 0 -i 22 -k RTR 
- -t 2.760000000 -s 0 -d 1 -p cbr -e 1020 -c 2 -a 0 -i 22 -k RTR
h -t 2.760000000 -s 0 -d 1 -p cbr -e 1020 -c 2 -a 0 -i 22 -k RTR
+ -t 2.769802000 -s 1 -d 2 -p cbr -e 1020 -c 2 -a 0 -i 22 -k RTR 
- -t 2.769802000 -s 1 -d 2 -p cbr -e 1020 -c 2 -a 0 -i 22 -k RTR
h -t 2.769802000 -s 1 -d 2 -p cbr -e 1020 -c 2 -a 0 -i 22 -k RTR
+ -t 2.779568000 -s 2 -d 3 -p cbr -e 1020 -c 2 -a 0 -i 22 -k RTR 
- -t 2.779568000 -s 2 -d 3 -p cbr -e 1020 -c 2 -a 0 -i 22 -k RTR
h -t 2.779568000 -s 2 -d 3 -p cbr -e 1020 -c 2 -a 0 -i 22 -k RTR
+ -t 2.789754010 -s 3 -d 7 -p cbr -e 1020 -c 2 -a 0 -i 22 -k RTR 
- -t 2.789754010 -s 3 -d 7 -p cbr -e 1020 -c 2 -a 0 -i 22 -k RTR
h -t 2.789754010 -s 3 -d 7 -p cbr -e 1020 -c 2 -a 0 -i 22 -k RTR
r -t 2.799899010 -s 7 -d 7 -p cbr -e 1020 -c 2 -a 0 -i 22 -k AGT
+ -t 2.840000000 -s 0 -d -1 -p cbr -e 1000 -c 2 -a 0 -i 23 -k AGT 
- -t 2.840000000 -s 0 -d -1 -p cbr -e 1000 -c 2 -a 0 -i 23 -k AGT
h -t 2.840000000 -s 0 -d -1 -p cbr -e 1000 -c 2 -a 0 -i 23 -k AGT
+ -t 2.840000000 -s 0 -d 1 -p cbr -e 1020 -c 2 -a 0 -i 23 -k RTR 
- -t 2.840000000 -s 0 -d 1 -p cbr -e 1020 -c 2 -a 0 -i 23 -k RTR
h -t 2.840000000 -s 0 -d 1 -p cbr -e 1020 -c 2 -a 0 -i 23 -k RTR
+ -t 2.849562000 -s 1 -d 2 -p cbr -e 1020 -c 2 -a 0 -i 23 -k RTR 
- -t 2.849562000 -s 1 -d 2 -p cbr -e 1020 -c 2 -a 0 -i 23 -k RTR
h -t 2.849562000 -s 1 -d 2 -p cbr -e 1020 -c 2 -a 0 -i 23 -k RTR
+ -t 2.859248000 -s 2 -d 3 -p cbr -e 1020 -c 2 -a 0 -i 23 -k RTR 
- -t 2.859248000 -s 2 -d 3 -p cbr -e 1020 -c 2 -a 0 -i 23 -k RTR
h -t 2.859248000 -s 2 -d 3 -p cbr -e 1020 -c 2 -a 0 -i 23 -k RTR
+ -t 2.869134010 -s 3 -d 7 -p cbr -e 1020 -c 2 -a 0 -i 23 -k RTR 
- -t 2.869134010 -s 3 -d 7 -p cbr -e 1020 -c 2 -a 0 -i 23 -k RTR
h -t 2.869134010 -s 3 -d 7 -p cbr -e 1020 -c 2 -a 0 -i 23 -k RTR
r -t 2.879379010 -s 7 -d 7 -p cbr -e 1020 -c 2 -a 0 -i 23 -k AGT
+ -t 2.920000000 -s 0 -d -1 -p cbr -e 1000 -c 2 -a 0 -i 24 -k AGT 
- -t 2.920000000 -s 0 -d -1 -p cbr -e 1000 -c 2 -a 0 -i 24 -k AGT
h -t 2.920000000 -s 0 -d -1 -p cbr -e 1000 -c 2 -a 0 -i 24 -k AGT
+ -t 2.920000000 -s 0 -d 1 -p cbr -e 1020 -c 2 -a 0 -i 24 -k RTR 
- -t 2.920000000 -s 0 -d 1 -p cbr -e 1020 -c 2 -a 0 -i 24 -k RTR
h -t 2.920000000 -s 0 -d 1 -p cbr -e 1020 -c 2 -a 0 -i 24 -k RTR
+ -t 2.929622000 -s 1 -d 2 -p cbr -e 1020 -c 2 -a 0 -i 24 -k RTR 
- -t 2.929622000 -s 1 -d 2 -p cbr -e 1020 -c 2 -a 0 -i 24 -k RTR