n -t * -s 0  -x 99 -y 299 -Z 0 -z 20  -v circle -c black
n -t * -s 1  -x 299 -y 297 -Z 0 -z 20  -v circle -c black
n -t * -s 2  -x 499 -y 298 -Z 0 -z 20  -v circle -c black
n -t * -s 3  -x 700 -y 299 -Z 0 -z 20  -v circle -c black
n -t * -s 4  -x 199 -y 350 -Z 0 -z 20  -v circle -c black
n -t * -s 5  -x 599 -y 350 -Z 0 -z 20  -v circle -c black
n -t * -s 6  -x 600 -y 200 -Z 0 -z 20  -v circle -c black
V -t * -v 1.0a5 -a 0
W -t * -x 800 -y 541
A -t * -n 1 -p 0 -o 0x7fffffff -c 30 -a 1
A -t * -h 1 -m 1073741823 -s 0
n -t 0 -s 5 -S COLOR -c red -o red -i red -I red
n -t 0 -s 5 -S DLABEL -l "Attacker" -L ""
n -t 0 -s 0 -S COLOR -c green -o green -i green -I green
n -t 0 -s 0 -S DLABEL -l "Source" -L ""
n -t 0 -s 3 -S COLOR -c blue -o blue -i blue -I blue
n -t 0 -s 3 -S DLABEL -l "Destination" -L ""
+ -t 0.000000000 -s 0 -d -1 -p AODV -e 44 -c 2 -a 0 -i 0 -k RTR 
- -t 0.000000000 -s 0 -d -1 -p AODV -e 44 -c 2 -a 0 -i 0 -k RTR
h -t 0.000000000 -s 0 -d -1 -p AODV -e 44 -c 2 -a 0 -i 0 -k RTR
+ -t 0.000000000 -s 1 -d -1 -p AODV -e 44 -c 2 -a 0 -i 0 -k RTR 
- -t 0.000000000 -s 1 -d -1 -p AODV -e 44 -c 2 -a 0 -i 0 -k RTR
h -t 0.000000000 -s 1 -d -1 -p AODV -e 44 -c 2 -a 0 -i 0 -k RTR
+ -t 0.000000000 -s 2 -d -1 -p AODV -e 44 -c 2 -a 0 -i 0 -k RTR 
- -t 0.000000000 -s 2 -d -1 -p AODV -e 44 -c 2 -a 0 -i 0 -k RTR
h -t 0.000000000 -s 2 -d -1 -p AODV -e 44 -c 2 -a 0 -i 0 -k RTR
+ -t 0.000000000 -s 3 -d -1 -p AODV -e 44 -c 2 -a 0 -i 0 -k RTR 
- -t 0.000000000 -s 3 -d -1 -p AODV -e 44 -c 2 -a 0 -i 0 -k RTR
h -t 0.000000000 -s 3 -d -1 -p AODV -e 44 -c 2 -a 0 -i 0 -k RTR
+ -t 0.000000000 -s 4 -d -1 -p AODV -e 44 -c 2 -a 0 -i 0 -k RTR 
- -t 0.000000000 -s 4 -d -1 -p AODV -e 44 -c 2 -a 0 -i 0 -k RTR
h -t 0.000000000 -s 4 -d -1 -p AODV -e 44 -c 2 -a 0 -i 0 -k RTR
+ -t 0.000000000 -s 5 -d -1 -p AODV -e 44 -c 2 -a 0 -i 0 -k RTR 
- -t 0.000000000 -s 5 -d -1 -p AODV -e 44 -c 2 -a 0 -i 0 -k RTR
h -t 0.000000000 -s 5 -d -1 -p AODV -e 44 -c 2 -a 0 -i 0 -k RTR
+ -t 0.000000000 -s 6 -d -1 -p AODV -e 44 -c 2 -a 0 -i 0 -k RTR 
- -t 0.000000000 -s 6 -d -1 -p AODV -e 44 -c 2 -a 0 -i 0 -k RTR
h -t 0.000000000 -s 6 -d -1 -p AODV -e 44 -c 2 -a 0 -i 0 -k RTR
r -t 0.000956376 -s 2 -d -1 -p AODV -e 44 -c 2 -a 0 -i 0 -k RTR
r -t 0.000956377 -s 3 -d -1 -p AODV -e 44 -c 2 -a 0 -i 0 -k RTR
r -t 0.000956500 -s 6 -d -1 -p AODV -e 44 -c 2 -a 0 -i 0 -k RTR
r -t 0.002042754 -s 5 -d -1 -p AODV -e 44 -c 2 -a 0 -i 0 -k RTR
r -t 0.002042846 -s 6 -d -1 -p AODV -e 44 -c 2 -a 0 -i 0 -k RTR
r -t 0.002043047 -s 2 -d -1 -p AODV -e 44 -c 2 -a 0 -i 0 -k RTR
r -t 0.003679384 -s 5 -d -1 -p AODV -e 44 -c 2 -a 0 -i 0 -k RTR
r -t 0.003679478 -s 6 -d -1 -p AODV -e 44 -c 2 -a 0 -i 0 -k RTR
r -t 0.003679675 -s 1 -d -1 -p AODV -e 44 -c 2 -a 0 -i 0 -k RTR
r -t 0.003679679 -s 3 -d -1 -p AODV -e 44 -c 2 -a 0 -i 0 -k RTR
r -t 0.004646053 -s 4 -d -1 -p AODV -e 44 -c 2 -a 0 -i 0 -k RTR
r -t 0.004646342 -s 2 -d -1 -p AODV -e 44 -c 2 -a 0 -i 0 -k RTR
r -t 0.004646342 -s 0 -d -1 -p AODV -e 44 -c 2 -a 0 -i 0 -k RTR
r -t 0.005612427 -s 0 -d -1 -p AODV -e 44 -c 2 -a 0 -i 0 -k RTR
r -t 0.005612430 -s 1 -d -1 -p AODV -e 44 -c 2 -a 0 -i 0 -k RTR
r -t 0.006923949 -s 3 -d -1 -p AODV -e 44 -c 2 -a 0 -i 0 -k RTR
r -t 0.006923949 -s 2 -d -1 -p AODV -e 44 -c 2 -a 0 -i 0 -k RTR
r -t 0.006923980 -s 5 -d -1 -p AODV -e 44 -c 2 -a 0 -i 0 -k RTR
+ -t 0.750169789 -s 0 -d -1 -p AODV -e 44 -c 2 -a 0 -i 0 -k RTR 
- -t 0.750169789 -s 0 -d -1 -p AODV -e 44 -c 2 -a 0 -i 0 -k RTR
h -t 0.750169789 -s 0 -d -1 -p AODV -e 44 -c 2 -a 0 -i 0 -k RTR
r -t 0.751306163 -s 4 -d -1 -p AODV -e 44 -c 2 -a 0 -i 0 -k RTR
r -t 0.751306455 -s 1 -d -1 -p AODV -e 44 -c 2 -a 0 -i 0 -k RTR
+ -t 0.757102330 -s 2 -d -1 -p AODV -e 44 -c 2 -a 0 -i 0 -k RTR 
- -t 0.757102330 -s 2 -d -1 -p AODV -e 44 -c 2 -a 0 -i 0 -k RTR
h -t 0.757102330 -s 2 -d -1 -p AODV -e 44 -c 2 -a 0 -i 0 -k RTR
r -t 0.758458706 -s 5 -d -1 -p AODV -e 44 -c 2 -a 0 -i 0 -k RTR
r -t 0.758458799 -s 6 -d -1 -p AODV -e 44 -c 2 -a 0 -i 0 -k RTR
r -t 0.758458997 -s 1 -d -1 -p AODV -e 44 -c 2 -a 0 -i 0 -k RTR
r -t 0.758459000 -s 3 -d -1 -p AODV -e 44 -c 2 -a 0 -i 0 -k RTR
+ -t 0.794061336 -s 3 -d -1 -p AODV -e 44 -c 2 -a 0 -i 0 -k RTR 
- -t 0.794061336 -s 3 -d -1 -p AODV -e 44 -c 2 -a 0 -i 0 -k RTR
h -t 0.794061336 -s 3 -d -1 -p AODV -e 44 -c 2 -a 0 -i 0 -k RTR
r -t 0.795377713 -s 5 -d -1 -p AODV -e 44 -c 2 -a 0 -i 0 -k RTR
r -t 0.795377805 -s 6 -d -1 -p AODV -e 44 -c 2 -a 0 -i 0 -k RTR
r -t 0.795378006 -s 2 -d -1 -p AODV -e 44 -c 2 -a 0 -i 0 -k RTR
+ -t 0.906480886 -s 6 -d -1 -p AODV -e 44 -c 2 -a 0 -i 0 -k RTR 
- -t 0.906480886 -s 6 -d -1 -p AODV -e 44 -c 2 -a 0 -i 0 -k RTR
h -t 0.906480886 -s 6 -d -1 -p AODV -e 44 -c 2 -a 0 -i 0 -k RTR
r -t 0.907437355 -s 3 -d -1 -p AODV -e 44 -c 2 -a 0 -i 0 -k RTR
r -t 0.907437355 -s 2 -d -1 -p AODV -e 44 -c 2 -a 0 -i 0 -k RTR
r -t 0.907437386 -s 5 -d -1 -p AODV -e 44 -c 2 -a 0 -i 0 -k RTR
+ -t 0.970586691 -s 4 -d -1 -p AODV -e 44 -c 2 -a 0 -i 0 -k RTR 
- -t 0.970586691 -s 4 -d -1 -p AODV -e 44 -c 2 -a 0 -i 0 -k RTR
h -t 0.970586691 -s 4 -d -1 -p AODV -e 44 -c 2 -a 0 -i 0 -k RTR
r -t 0.971643065 -s 0 -d -1 -p AODV -e 44 -c 2 -a 0 -i 0 -k RTR
r -t 0.971643068 -s 1 -d -1 -p AODV -e 44 -c 2 -a 0 -i 0 -k RTR
+ -t 1.000000000 -s 0 -d -1 -p cbr -e 1000 -c 2 -a 0 -i 0 -k AGT 
- -t 1.000000000 -s 0 -d -1 -p cbr -e 1000 -c 2 -a 0 -i 0 -k AGT
h -t 1.000000000 -s 0 -d -1 -p cbr -e 1000 -c 2 -a 0 -i 0 -k AGT
+ -t 1.000000000 -s 0 -d -1 -p AODV -e 48 -c 2 -a 0 -i 0 -k RTR 
- -t 1.000000000 -s 0 -d -1 -p AODV -e 48 -c 2 -a 0 -i 0 -k RTR
h -t 1.000000000 -s 0 -d -1 -p AODV -e 48 -c 2 -a 0 -i 0 -k RTR
r -t 1.001228374 -s 4 -d -1 -p AODV -e 48 -c 2 -a 0 -i 0 -k RTR
r -t 1.001228667 -s 1 -d -1 -p AODV -e 48 -c 2 -a 0 -i 0 -k RTR
+ -t 1.003102027 -s 4 -d -1 -p AODV -e 48 -c 2 -a 0 -i 0 -k RTR 
- -t 1.003102027 -s 4 -d -1 -p AODV -e 48 -c 2 -a 0 -i 0 -k RTR
h -t 1.003102027 -s 4 -d -1 -p AODV -e 48 -c 2 -a 0 -i 0 -k RTR
r -t 1.004270401 -s 0 -d -1 -p AODV -e 48 -c 2 -a 0 -i 0 -k RTR
r -t 1.004270404 -s 1 -d -1 -p AODV -e 48 -c 2 -a 0 -i 0 -k RTR
+ -t 1.010103102 -s 1 -d -1 -p AODV -e 48 -c 2 -a 0 -i 0 -k RTR 
- -t 1.010103102 -s 1 -d -1 -p AODV -e 48 -c 2 -a 0 -i 0 -k RTR
h -t 1.010103102 -s 1 -d -1 -p AODV -e 48 -c 2 -a 0 -i 0 -k RTR
r -t 1.011631479 -s 4 -d -1 -p AODV -e 48 -c 2 -a 0 -i 0 -k RTR
r -t 1.011631769 -s 2 -d -1 -p AODV -e 48 -c 2 -a 0 -i 0 -k RTR
r -t 1.011631769 -s 0 -d -1 -p AODV -e 48 -c 2 -a 0 -i 0 -k RTR
+ -t 1.011739852 -s 2 -d -1 -p AODV -e 48 -c 2 -a 0 -i 0 -k RTR 
- -t 1.011739852 -s 2 -d -1 -p AODV -e 48 -c 2 -a 0 -i 0 -k RTR
h -t 1.011739852 -s 2 -d -1 -p AODV -e 48 -c 2 -a 0 -i 0 -k RTR
r -t 1.013028228 -s 5 -d -1 -p AODV -e 48 -c 2 -a 0 -i 0 -k RTR
r -t 1.013028321 -s 6 -d -1 -p AODV -e 48 -c 2 -a 0 -i 0 -k RTR
r -t 1.013028519 -s 1 -d -1 -p AODV -e 48 -c 2 -a 0 -i 0 -k RTR
r -t 1.013028522 -s 3 -d -1 -p AODV -e 48 -c 2 -a 0 -i 0 -k RTR
+ -t 1.013028522 -s 3 -d 2 -p AODV -e 44 -c 2 -a 0 -i 0 -k RTR 
- -t 1.013028522 -s 3 -d 2 -p AODV -e 44 -c 2 -a 0 -i 0 -k RTR
h -t 1.013028522 -s 3 -d 2 -p AODV -e 44 -c 2 -a 0 -i 0 -k RTR
+ -t 1.014259263 -s 5 -d -1 -p AODV -e 48 -c 2 -a 0 -i 0 -k RTR 
- -t 1.014259263 -s 5 -d -1 -p AODV -e 48 -c 2 -a 0 -i 0 -k RTR
h -t 1.014259263 -s 5 -d -1 -p AODV -e 48 -c 2 -a 0 -i 0 -k RTR
r -t 1.016905955 -s 2 -d -1 -p AODV -e 48 -c 2 -a 0 -i 0 -k RTR
r -t 1.016905957 -s 3 -d -1 -p AODV -e 48 -c 2 -a 0 -i 0 -k RTR
r -t 1.016906079 -s 6 -d -1 -p AODV -e 48 -c 2 -a 0 -i 0 -k RTR
+ -t 1.018729967 -s 2 -d 1 -p AODV -e 44 -c 2 -a 0 -i 0 -k RTR 
- -t 1.018729967 -s 2 -d 1 -p AODV -e 44 -c 2 -a 0 -i 0 -k RTR
h -t 1.018729967 -s 2 -d 1 -p AODV -e 44 -c 2 -a 0 -i 0 -k RTR
+ -t 1.019714560 -s 6 -d -1 -p AODV -e 48 -c 2 -a 0 -i 0 -k RTR 
- -t 1.019714560 -s 6 -d -1 -p AODV -e 48 -c 2 -a 0 -i 0 -k RTR
h -t 1.019714560 -s 6 -d -1 -p AODV -e 48 -c 2 -a 0 -i 0 -k RTR
r -t 1.022706490 -s 3 -d -1 -p AODV -e 48 -c 2 -a 0 -i 0 -k RTR
r -t 1.022706490 -s 2 -d -1 -p AODV -e 48 -c 2 -a 0 -i 0 -k RTR
r -t 1.022706521 -s 5 -d -1 -p AODV -e 48 -c 2 -a 0 -i 0 -k RTR
+ -t 1.024430490 -s 1 -d 0 -p AODV -e 44 -c 2 -a 0 -i 0 -k RTR 
- -t 1.024430490 -s 1 -d 0 -p AODV -e 44 -c 2 -a 0 -i 0 -k RTR
h -t 1.024430490 -s 1 -d 0 -p AODV -e 44 -c 2 -a 0 -i 0 -k RTR
+ -t 1.027940358 -s 1 -d -1 -p AODV -e 44 -c 2 -a 0 -i 0 -k RTR 
- -t 1.027940358 -s 1 -d -1 -p AODV -e 44 -c 2 -a 0 -i 0 -k RTR
h -t 1.027940358 -s 1 -d -1 -p AODV -e 44 -c 2 -a 0 -i 0 -k RTR
+ -t 1.029602157 -s 0 -d 1 -p cbr -e 1020 -c 2 -a 0 -i 0 -k RTR 
- -t 1.029602157 -s 0 -d 1 -p cbr -e 1020 -c 2 -a 0 -i 0 -k RTR
h -t 1.029602157 -s 0 -d 1 -p cbr -e 1020 -c 2 -a 0 -i 0 -k RTR
+ -t 1.039308157 -s 1 -d 2 -p cbr -e 1020 -c 2 -a 0 -i 0 -k RTR 
- -t 1.039308157 -s 1 -d 2 -p cbr -e 1020 -c 2 -a 0 -i 0 -k RTR
h -t 1.039308157 -s 1 -d 2 -p cbr -e 1020 -c 2 -a 0 -i 0 -k RTR
r -t 1.040928534 -s 4 -d -1 -p AODV -e 44 -c 2 -a 0 -i 0 -k RTR
r -t 1.040928824 -s 2 -d -1 -p AODV -e 44 -c 2 -a 0 -i 0 -k RTR
r -t 1.040928824 -s 0 -d -1 -p AODV -e 44 -c 2 -a 0 -i 0 -k RTR
+ -t 1.050480157 -s 2 -d 3 -p cbr -e 1020 -c 2 -a 0 -i 0 -k RTR 
- -t 1.050480157 -s 2 -d 3 -p cbr -e 1020 -c 2 -a 0 -i 0 -k RTR
h -t 1.050480157 -s 2 -d 3 -p cbr -e 1020 -c 2 -a 0 -i 0 -k RTR
r -t 1.060246167 -s 3 -d 3 -p cbr -e 1020 -c 2 -a 0 -i 0 -k AGT
+ -t 1.080000000 -s 0 -d -1 -p cbr -e 1000 -c 2 -a 0 -i 1 -k AGT 
- -t 1.080000000 -s 0 -d -1 -p cbr -e 1000 -c 2 -a 0 -i 1 -k AGT
h -t 1.080000000 -s 0 -d -1 -p cbr -e 1000 -c 2 -a 0 -i 1 -k AGT
+ -t 1.080000000 -s 0 -d 1 -p cbr -e 1020 -c 2 -a 0 -i 1 -k RTR 
- -t 1.080000000 -s 0 -d 1 -p cbr -e 1020 -c 2 -a 0 -i 1 -k RTR
h -t 1.080000000 -s 0 -d 1 -p cbr -e 1020 -c 2 -a 0 -i 1 -k RTR
+ -t 1.089602000 -s 1 -d 2 -p cbr -e 1020 -c 2 -a 0 -i 1 -k RTR 
- -t 1.089602000 -s 1 -d 2 -p cbr -e 1020 -c 2 -a 0 -i 1 -k RTR
h -t 1.089602000 -s 1 -d 2 -p cbr -e 1020 -c 2 -a 0 -i 1 -k RTR
+ -t 1.099328000 -s 2 -d 3 -p cbr -e 1020 -c 2 -a 0 -i 1 -k RTR 
- -t 1.099328000 -s 2 -d 3 -p cbr -e 1020 -c 2 -a 0 -i 1 -k RTR
h -t 1.099328000 -s 2 -d 3 -p cbr -e 1020 -c 2 -a 0 -i 1 -k RTR
r -t 1.109594010 -s 3 -d 3 -p cbr -e 1020 -c 2 -a 0 -i 1 -k AGT
+ -t 1.149577727 -s 5 -d -1 -p AODV -e 44 -c 2 -a 0 -i 0 -k RTR 
- -t 1.149577727 -s 5 -d -1 -p AODV -e 44 -c 2 -a 0 -i 0 -k RTR
h -t 1.149577727 -s 5 -d -1 -p AODV -e 44 -c 2 -a 0 -i 0 -k RTR
r -t 1.150614102 -s 2 -d -1 -p AODV -e 44 -c 2 -a 0 -i 0 -k RTR
r -t 1.150614104 -s 3 -d -1 -p AODV -e 44 -c 2 -a 0 -i 0 -k RTR
r -t 1.150614227 -s 6 -d -1 -p AODV -e 44 -c 2 -a 0 -i 0 -k RTR
+ -t 1.160000000 -s 0 -d -1 -p cbr -e 1000 -c 2 -a 0 -i 2 -k AGT 
- -t 1.160000000 -s 0 -d -1 -p cbr -e 1000 -c 2 -a 0 -i 2 -k AGT
h -t 1.160000000 -s 0 -d -1 -p cbr -e 1000 -c 2 -a 0 -i 2 -k AGT
+ -t 1.160000000 -s 0 -d 1 -p cbr -e 1020 -c 2 -a 0 -i 2 -k RTR 
- -t 1.160000000 -s 0 -d 1 -p cbr -e 1020 -c 2 -a 0 -i 2 -k RTR
h -t 1.160000000 -s 0 -d 1 -p cbr -e 1020 -c 2 -a 0 -i 2 -k RTR
+ -t 1.169842000 -s 1 -d 2 -p cbr -e 1020 -c 2 -a 0 -i 2 -k RTR 
- -t 1.169842000 -s 1 -d 2 -p cbr -e 1020 -c 2 -a 0 -i 2 -k RTR
h -t 1.169842000 -s 1 -d 2 -p cbr -e 1020 -c 2 -a 0 -i 2 -k RTR
+ -t 1.180048000 -s 2 -d 3 -p cbr -e 1020 -c 2 -a 0 -i 2 -k RTR 
- -t 1.180048000 -s 2 -d 3 -p cbr -e 1020 -c 2 -a 0 -i 2 -k RTR
h -t 1.180048000 -s 2 -d 3 -p cbr -e 1020 -c 2 -a 0 -i 2 -k RTR
r -t 1.190014010 -s 3 -d 3 -p cbr -e 1020 -c 2 -a 0 -i 2 -k AGT
+ -t 1.240000000 -s 0 -d -1 -p cbr -e 1000 -c 2 -a 0 -i 3 -k AGT 
- -t 1.240000000 -s 0 -d -1 -p cbr -e 1000 -c 2 -a 0 -i 3 -k AGT
h -t 1.240000000 -s 0 -d -1 -p cbr -e 1000 -c 2 -a 0 -i 3 -k AGT
+ -t 1.240000000 -s 0 -d 1 -p cbr -e 1020 -c 2 -a 0 -i 3 -k RTR 
- -t 1.240000000 -s 0 -d 1 -p cbr -e 1020 -c 2 -a 0 -i 3 -k RTR
h -t 1.240000000 -s 0 -d 1 -p cbr -e 1020 -c 2 -a 0 -i 3 -k RTR
+ -t 1.249442000 -s 1 -d 2 -p cbr -e 1020 -c 2 -a 0 -i 3 -k RTR 
- -t 1.249442000 -s 1 -d 2 -p cbr -e 1020 -c 2 -a 0 -i 3 -k RTR
h -t 1.249442000 -s 1 -d 2 -p cbr -e 1020 -c 2 -a 0 -i 3 -k RTR
+ -t 1.259688000 -s 2 -d 3 -p cbr -e 1020 -c 2 -a 0 -i 3 -k RTR 
- -t 1.259688000 -s 2 -d 3 -p cbr -e 1020 -c 2 -a 0 -i 3 -k RTR
h -t 1.259688000 -s 2 -d 3 -p cbr -e 1020 -c 2 -a 0 -i 3 -k RTR
r -t 1.269534010 -s 3 -d 3 -p cbr -e 1020 -c 2 -a 0 -i 3 -k AGT
+ -t 1.320000000 -s 0 -d -1 -p cbr -e 1000 -c 2 -a 0 -i 4 -k AGT 
- -t 1.320000000 -s 0 -d -1 -p cbr -e 1000 -c 2 -a 0 -i 4 -k AGT
h -t 1.320000000 -s 0 -d -1 -p cbr -e 1000 -c 2 -a 0 -i 4 -k AGT
+ -t 1.320000000 -s 0 -d 1 -p cbr -e 1020 -c 2 -a 0 -i 4 -k RTR 
- -t 1.320000000 -s 0 -d 1 -p cbr -e 1020 -c 2 -a 0 -i 4 -k RTR
h -t 1.320000000 -s 0 -d 1 -p cbr -e 1020 -c 2 -a 0 -i 4 -k RTR
+ -t 1.329802000 -s 1 -d 2 -p cbr -e 1020 -c 2 -a 0 -i 4 -k RTR 
- -t 1.329802000 -s 1 -d 2 -p cbr -e 1020 -c 2 -a 0 -i 4 -k RTR
h -t 1.329802000 -s 1 -d 2 -p cbr -e 1020 -c 2 -a 0 -i 4 -k RTR
+ -t 1.339588000 -s 2 -d 3 -p cbr -e 1020 -c 2 -a 0 -i 4 -k RTR 
- -t 1.339588000 -s 2 -d 3 -p cbr -e 1020 -c 2 -a 0 -i 4 -k RTR
h -t 1.339588000 -s 2 -d 3 -p cbr -e 1020 -c 2 -a 0 -i 4 -k RTR
r -t 1.349474010 -s 3 -d 3 -p cbr -e 1020 -c 2 -a 0 -i 4 -k AGT
+ -t 1.400000000 -s 0 -d -1 -p cbr -e 1000 -c 2 -a 0 -i 5 -k AGT 
- -t 1.400000000 -s 0 -d -1 -p cbr -e 1000 -c 2 -a 0 -i 5 -k AGT
h -t 1.400000000 -s 0 -d -1 -p cbr -e 1000 -c 2 -a 0 -i 5 -k AGT
+ -t 1.400000000 -s 0 -d 1 -p cbr -e 1020 -c 2 -a 0 -i 5 -k RTR 
- -t 1.400000000 -s 0 -d 1 -p cbr -e 1020 -c 2 -a 0 -i 5 -k RTR
h -t 1.400000000 -s 0 -d 1 -p cbr -e 1020 -c 2 -a 0 -i 5 -k RTR
+ -t 1.409762000 -s 1 -d 2 -p cbr -e 1020 -c 2 -a 0 -i 5 -k RTR 
- -t 1.409762000 -s 1 -d 2 -p cbr -e 1020 -c 2 -a 0 -i 5 -k RTR
h -t 1.409762000 -s 1 -d 2 -p cbr -e 1020 -c 2 -a 0 -i 5 -k RTR
+ -t 1.419748000 -s 2 -d 3 -p cbr -e 1020 -c 2 -a 0 -i 5 -k RTR 
- -t 1.419748000 -s 2 -d 3 -p cbr -e 1020 -c 2 -a 0 -i 5 -k RTR
h -t 1.419748000 -s 2 -d 3 -p cbr -e 1020 -c 2 -a 0 -i 5 -k RTR
r -t 1.429914010 -s 3 -d 3 -p cbr -e 1020 -c 2 -a 0 -i 5 -k AGT
+ -t 1.480000000 -s 0 -d -1 -p cbr -e 1000 -c 2 -a 0 -i 6 -k AGT 
- -t 1.480000000 -s 0 -d -1 -p cbr -e 1000 -c 2 -a 0 -i 6 -k AGT
h -t 1.480000000 -s 0 -d -1 -p cbr -e 1000 -c 2 -a 0 -i 6 -k AGT
+ -t 1.480000000 -s 0 -d 1 -p cbr -e 1020 -c 2 -a 0 -i 6 -k RTR 
- -t 1.480000000 -s 0 -d 1 -p cbr -e 1020 -c 2 -a 0 -i 6 -k RTR
h -t 1.480000000 -s 0 -d 1 -p cbr -e 1020 -c 2 -a 0 -i 6 -k RTR
+ -t 1.489422000 -s 1 -d 2 -p cbr -e 1020 -c 2 -a 0 -i 6 -k RTR 
- -t 1.489422000 -s 1 -d 2 -p cbr -e 1020 -c 2 -a 0 -i 6 -k RTR
h -t 1.489422000 -s 1 -d 2 -p cbr -e 1020 -c 2 -a 0 -i 6 -k RTR
+ -t 1.499348000 -s 2 -d 3 -p cbr -e 1020 -c 2 -a 0 -i 6 -k RTR 
- -t 1.499348000 -s 2 -d 3 -p cbr -e 1020 -c 2 -a 0 -i 6 -k RTR
h -t 1.499348000 -s 2 -d 3 -p cbr -e 1020 -c 2 -a 0 -i 6 -k RTR
r -t 1.509014010 -s 3 -d 3 -p cbr -e 1020 -c 2 -a 0 -i 6 -k AGT
+ -t 1.560000000 -s 0 -d -1 -p cbr -e 1000 -c 2 -a 0 -i 7 -k AGT 
- -t 1.560000000 -s 0 -d -1 -p cbr -e 1000 -c 2 -a 0 -i 7 -k AGT
h -t 1.560000000 -s 0 -d -1 -p cbr -e 1000 -c 2 -a 0 -i 7 -k AGT
+ -t 1.560000000 -s 0 -d 1 -p cbr -e 1020 -c 2 -a 0 -i 7 -k RTR 
- -t 1.560000000 -s 0 -d 1 -p cbr -e 1020 -c 2 -a 0 -i 7 -k RTR
h -t 1.560000000 -s 0 -d 1 -p cbr -e 1020 -c 2 -a 0 -i 7 -k RTR
+ -t 1.570002000 -s 1 -d 2 -p cbr -e 1020 -c 2 -a 0 -i 7 -k RTR 
- -t 1.570002000 -s 1 -d 2 -p cbr -e 1020 -c 2 -a 0 -i 7 -k RTR
h -t 1.570002000 -s 1 -d 2 -p cbr -e 1020 -c 2 -a 0 -i 7 -k RTR
+ -t 1.580088000 -s 2 -d 3 -p cbr -e 1020 -c 2 -a 0 -i 7 -k RTR 
- -t 1.580088000 -s 2 -d 3 -p cbr -e 1020 -c 2 -a 0 -i 7 -k RTR
h -t 1.580088000 -s 2 -d 3 -p cbr -e 1020 -c 2 -a 0 -i 7 -k RTR
r -t 1.589774010 -s 3 -d 3 -p cbr -e 1020 -c 2 -a 0 -i 7 -k AGT
+ -t 1.640000000 -s 0 -d -1 -p cbr -e 1000 -c 2 -a 0 -i 8 -k AGT 
- -t 1.640000000 -s 0 -d -1 -p cbr -e 1000 -c 2 -a 0 -i 8 -k AGT
h -t 1.640000000 -s 0 -d -1 -p cbr -e 1000 -c 2 -a 0 -i 8 -k AGT
+ -t 1.640000000 -s 0 -d 1 -p cbr -e 1020 -c 2 -a 0 -i 8 -k RTR 
- -t 1.640000000 -s 0 -d 1 -p cbr -e 1020 -c 2 -a 0 -i 8 -k RTR
h -t 1.640000000 -s 0 -d 1 -p cbr -e 1020 -c 2 -a 0 -i 8 -k RTR
+ -t 1.649422000 -s 1 -d 2 -p cbr -e 1020 -c 2 -a 0 -i 8 -k RTR 
- -t 1.649422000 -s 1 -d 2 -p cbr -e 1020 -c 2 -a 0 -i 8 -k RTR
h -t 1.649422000 -s 1 -d 2 -p cbr -e 1020 -c 2 -a 0 -i 8 -k RTR
+ -t 1.659108000 -s 2 -d 3 -p cbr -e 1020 -c 2 -a 0 -i 8 -k RTR 
- -t 1.659108000 -s 2 -d 3 -p cbr -e 1020 -c 2 -a 0 -i 8 -k RTR
h -t 1.659108000 -s 2 -d 3 -p cbr -e 1020 -c 2 -a 0 -i 8 -k RTR
r -t 1.669214010 -s 3 -d 3 -p cbr -e 1020 -c 2 -a 0 -i 8 -k AGT
+ -t 1.674540301 -s 0 -d -1 -p AODV -e 44 -c 2 -a 0 -i 0 -k RTR 
- -t 1.674540301 -s 0 -d -1 -p AODV -e 44 -c 2 -a 0 -i 0 -k RTR
h -t 1.674540301 -s 0 -d -1 -p AODV -e 44 -c 2 -a 0 -i 0 -k RTR
r -t 1.675636676 -s 4 -d -1 -p AODV -e 44 -c 2 -a 0 -i 0 -k RTR
r -t 1.675636968 -s 1 -d -1 -p AODV -e 44 -c 2 -a 0 -i 0 -k RTR
+ -t 1.720000000 -s 0 -d -1 -p cbr -e 1000 -c 2 -a 0 -i 9 -k AGT 
- -t 1.720000000 -s 0 -d -1 -p cbr -e 1000 -c 2 -a 0 -i 9 -k AGT
h -t 1.720000000 -s 0 -d -1 -p cbr -e 1000 -c 2 -a 0 -i 9 -k AGT
+ -t 1.720000000 -s 0 -d 1 -p cbr -e 1020 -c 2 -a 0 -i 9 -k RTR 
- -t 1.720000000 -s 0 -d 1 -p cbr -e 1020 -c 2 -a 0 -i 9 -k RTR
h -t 1.720000000 -s 0 -d 1 -p cbr -e 1020 -c 2 -a 0 -i 9 -k RTR
+ -t 1.729582000 -s 1 -d 2 -p cbr -e 1020 -c 2 -a 0 -i 9 -k RTR 
- -t 1.729582000 -s 1 -d 2 -p cbr -e 1020 -c 2 -a 0 -i 9 -k RTR
h -t 1.729582000 -s 1 -d 2 -p cbr -e 1020 -c 2 -a 0 -i 9 -k RTR
+ -t 1.739388000 -s 2 -d 3 -p cbr -e 1020 -c 2 -a 0 -i 9 -k RTR 
- -t 1.739388000 -s 2 -d 3 -p cbr -e 1020 -c 2 -a 0 -i 9 -k RTR
h -t 1.739388000 -s 2 -d 3 -p cbr -e 1020 -c 2 -a 0 -i 9 -k RTR
r -t 1.749054010 -s 3 -d 3 -p cbr -e 1020 -c 2 -a 0 -i 9 -k AGT
+ -t 1.766426728 -s 2 -d -1 -p AODV -e 44 -c 2 -a 0 -i 0 -k RTR 
- -t 1.766426728 -s 2 -d -1 -p AODV -e 44 -c 2 -a 0 -i 0 -k RTR
h -t 1.766426728 -s 2 -d -1 -p AODV -e 44 -c 2 -a 0 -i 0 -k RTR
r -t 1.767903103 -s 5 -d -1 -p AODV -e 44 -c 2 -a 0 -i 0 -k RTR
r -t 1.767903197 -s 6 -d -1 -p AODV -e 44 -c 2 -a 0 -i 0 -k RTR
r -t 1.767903394 -s 1 -d -1 -p AODV -e 44 -c 2 -a 0 -i 0 -k RTR
r -t 1.767903398 -s 3 -d -1 -p AODV -e 44 -c 2 -a 0 -i 0 -k RTR
+ -t 1.777093700 -s 6 -d -1 -p AODV -e 44 -c 2 -a 0 -i 0 -k RTR 
- -t 1.777093700 -s 6 -d -1 -p AODV -e 44 -c 2 -a 0 -i 0 -k RTR
h -t 1.777093700 -s 6 -d -1 -p AODV -e 44 -c 2 -a 0 -i 0 -k RTR
r -t 1.778230169 -s 3 -d -1 -p AODV -e 44 -c 2 -a 0 -i 0 -k RTR
r -t 1.778230169 -s 2 -d -1 -p AODV -e 44 -c 2 -a 0 -i 0 -k RTR
r -t 1.778230200 -s 5 -d -1 -p AODV -e 44 -c 2 -a 0 -i 0 -k RTR
+ -t 1.800000000 -s 0 -d -1 -p cbr -e 1000 -c 2 -a 0 -i 10 -k AGT 
- -t 1.800000000 -s 0 -d -1 -p cbr -e 1000 -c 2 -a 0 -i 10 -k AGT
h -t 1.800000000 -s 0 -d -1 -p cbr -e 1000 -c 2 -a 0 -i 10 -k AGT
+ -t 1.800000000 -s 0 -d 1 -p cbr -e 1020 -c 2 -a 0 -i 10 -k RTR 
- -t 1.800000000 -s 0 -d 1 -p cbr -e 1020 -c 2 -a 0 -i 10 -k RTR
h -t 1.800000000 -s 0 -d 1 -p cbr -e 1020 -c 2 -a 0 -i 10 -k RTR
+ -t 1.809542000 -s 1 -d 2 -p cbr -e 1020 -c 2 -a 0 -i 10 -k RTR 
- -t 1.809542000 -s 1 -d 2 -p cbr -e 1020 -c 2 -a 0 -i 10 -k RTR
h -t 1.809542000 -s 1 -d 2 -p cbr -e 1020 -c 2 -a 0 -i 10 -k RTR
+ -t 1.819448000 -s 2 -d 3 -p cbr -e 1020 -c 2 -a 0 -i 10 -k RTR 
- -t 1.819448000 -s 2 -d 3 -p cbr -e 1020 -c 2 -a 0 -i 10 -k RTR
h -t 1.819448000 -s 2 -d 3 -p cbr -e 1020 -c 2 -a 0 -i 10 -k RTR
+ -t 1.823618816 -s 1 -d -1 -p AODV -e 44 -c 2 -a 0 -i 0 -k RTR 
- -t 1.823618816 -s 1 -d -1 -p AODV -e 44 -c 2 -a 0 -i 0 -k RTR
h -t 1.823618816 -s 1 -d -1 -p AODV -e 44 -c 2 -a 0 -i 0 -k RTR
r -t 1.829214010 -s 3 -d 3 -p cbr -e 1020 -c 2 -a 0 -i 10 -k AGT
r -t 1.830859724 -s 4 -d -1 -p AODV -e 44 -c 2 -a 0 -i 0 -k RTR
r -t 1.830860014 -s 2 -d -1 -p AODV -e 44 -c 2 -a 0 -i 0 -k RTR
r -t 1.830860014 -s 0 -d -1 -p AODV -e 44 -c 2 -a 0 -i 0 -k RTR
+ -t 1.880000000 -s 0 -d -1 -p cbr -e 1000 -c 2 -a 0 -i 11 -k AGT 
- -t 1.880000000 -s 0 -d -1 -p cbr -e 1000 -c 2 -a 0 -i 11 -k AGT
h -t 1.880000000 -s 0 -d -1 -p cbr -e 1000 -c 2 -a 0 -i 11 -k AGT
+ -t 1.880000000 -s 0 -d 1 -p cbr -e 1020 -c 2 -a 0 -i 11 -k RTR 
- -t 1.880000000 -s 0 -d 1 -p cbr -e 1020 -c 2 -a 0 -i 11 -k RTR
h -t 1.880000000 -s 0 -d 1 -p cbr -e 1020 -c 2 -a 0 -i 11 -k RTR
+ -t 1.889642000 -s 1 -d 2 -p cbr -e 1020 -c 2 -a 0 -i 11 -k RTR 
- -t 1.889642000 -s 1 -d 2 -p cbr -e 1020 -c 2 -a 0 -i 11 -k RTR
h -t 1.889642000 -s 1 -d 2 -p cbr -e 1020 -c 2 -a 0 -i 11 -k RTR
+ -t 1.899308000 -s 2 -d 3 -p cbr -e 1020 -c 2 -a 0 -i 11 -k RTR 
- -t 1.899308000 -s 2 -d 3 -p cbr -e 1020 -c 2 -a 0 -i 11 -k RTR
h -t 1.899308000 -s 2 -d 3 -p cbr -e 1020 -c 2 -a 0 -i 11 -k RTR
r -t 1.909334010 -s 3 -d 3 -p cbr -e 1020 -c 2 -a 0 -i 11 -k AGT
+ -t 1.960000000 -s 0 -d -1 -p cbr -e 1000 -c 2 -a 0 -i 12 -k AGT 
- -t 1.960000000 -s 0 -d -1 -p cbr -e 1000 -c 2 -a 0 -i 12 -k AGT
h -t 1.960000000 -s 0 -d -1 -p cbr -e 1000 -c 2 -a 0 -i 12 -k AGT
+ -t 1.960000000 -s 0 -d 1 -p cbr -e 1020 -c 2 -a 0 -i 12 -k RTR 
- -t 1.960000000 -s 0 -d 1 -p cbr -e 1020 -c 2 -a 0 -i 12 -k RTR
h -t 1.960000000 -s 0 -d 1 -p cbr -e 1020 -c 2 -a 0 -i 12 -k RTR
+ -t 1.970002000 -s 1 -d 2 -p cbr -e 1020 -c 2 -a 0 -i 12 -k RTR 
- -t 1.970002000 -s 1 -d 2 -p cbr -e 1020 -c 2 -a 0 -i 12 -k RTR
h -t 1.970002000 -s 1 -d 2 -p cbr -e 1020 -c 2 -a 0 -i 12 -k RTR
+ -t 1.975094976 -s 3 -d -1 -p AODV -e 44 -c 2 -a 0 -i 0 -k RTR 
- -t 1.975094976 -s 3 -d -1 -p AODV -e 44 -c 2 -a 0 -i 0 -k RTR
h -t 1.975094976 -s 3 -d -1 -p AODV -e 44 -c 2 -a 0 -i 0 -k RTR
+ -t 1.979808000 -s 2 -d 3 -p cbr -e 1020 -c 2 -a 0 -i 12 -k RTR 
- -t 1.979808000 -s 2 -d 3 -p cbr -e 1020 -c 2 -a 0 -i 12 -k RTR
h -t 1.979808000 -s 2 -d 3 -p cbr -e 1020 -c 2 -a 0 -i 12 -k RTR
r -t 1.981079047 -s 5 -d -1 -p AODV -e 44 -c 2 -a 0 -i 0 -k RTR
r -t 1.981079139 -s 6 -d -1 -p AODV -e 44 -c 2 -a 0 -i 0 -k RTR
r -t 1.981079340 -s 2 -d -1 -p AODV -e 44 -c 2 -a 0 -i 0 -k RTR
r -t 1.990831350 -s 3 -d 3 -p cbr -e 1020 -c 2 -a 0 -i 12 -k AGT
+ -t 2.040000000 -s 0 -d -1 -p cbr -e 1000 -c 2 -a 0 -i 13 -k AGT 
- -t 2.040000000 -s 0 -d -1 -p cbr -e 1000 -c 2 -a 0 -i 13 -k AGT
h -t 2.040000000 -s 0 -d -1 -p cbr -e 1000 -c 2 -a 0 -i 13 -k AGT
+ -t 2.040000000 -s 0 -d 1 -p cbr -e 1020 -c 2 -a 0 -i 13 -k RTR 
- -t 2.040000000 -s 0 -d 1 -p cbr -e 1020 -c 2 -a 0 -i 13 -k RTR
h -t 2.040000000 -s 0 -d 1 -p cbr -e 1020 -c 2 -a 0 -i 13 -k RTR
+ -t 2.049962000 -s 1 -d 2 -p cbr -e 1020 -c 2 -a 0 -i 13 -k RTR 
- -t 2.049962000 -s 1 -d 2 -p cbr -e 1020 -c 2 -a 0 -i 13 -k RTR
h -t 2.049962000 -s 1 -d 2 -p cbr -e 1020 -c 2 -a 0 -i 13 -k RTR
+ -t 2.059928000 -s 2 -d 3 -p cbr -e 1020 -c 2 -a 0 -i 13 -k RTR 
- -t 2.059928000 -s 2 -d 3 -p cbr -e 1020 -c 2 -a 0 -i 13 -k RTR
h -t 2.059928000 -s 2 -d 3 -p cbr -e 1020 -c 2 -a 0 -i 13 -k RTR
r -t 2.069914010 -s 3 -d 3 -p cbr -e 1020 -c 2 -a 0 -i 13 -k AGT
+ -t 2.101702637 -s 4 -d -1 -p AODV -e 44 -c 2 -a 0 -i 0 -k RTR 
- -t 2.101702637 -s 4 -d -1 -p AODV -e 44 -c 2 -a 0 -i 0 -k RTR
h -t 2.101702637 -s 4 -d -1 -p AODV -e 44 -c 2 -a 0 -i 0 -k RTR
r -t 2.103119012 -s 0 -d -1 -p AODV -e 44 -c 2 -a 0 -i 0 -k RTR
r -t 2.103119015 -s 1 -d -1 -p AODV -e 44 -c 2 -a 0 -i 0 -k RTR
+ -t 2.120000000 -s 0 -d -1 -p cbr -e 1000 -c 2 -a 0 -i 14 -k AGT 
- -t 2.120000000 -s 0 -d -1 -p cbr -e 1000 -c 2 -a 0 -i 14 -k AGT
h -t 2.120000000 -s 0 -d -1 -p cbr -e 1000 -c 2 -a 0 -i 14 -k AGT
+ -t 2.120000000 -s 0 -d 1 -p cbr -e 1020 -c 2 -a 0 -i 14 -k RTR 
- -t 2.120000000 -s 0 -d 1 -p cbr -e 1020 -c 2 -a 0 -i 14 -k RTR
h -t 2.120000000 -s 0 -d 1 -p cbr -e 1020 -c 2 -a 0 -i 14 -k RTR
+ -t 2.130002000 -s 1 -d 2 -p cbr -e 1020 -c 2 -a 0 -i 14 -k RTR 
- -t 2.130002000 -s 1 -d 2 -p cbr -e 1020 -c 2 -a 0 -i 14 -k RTR
h -t 2.130002000 -s 1 -d 2 -p cbr -e 1020 -c 2 -a 0 -i 14 -k RTR
+ -t 2.139668000 -s 2 -d 3 -p cbr -e 1020 -c 2 -a 0 -i 14 -k RTR 
- -t 2.139668000 -s 2 -d 3 -p cbr -e 1020 -c 2 -a 0 -i 14 -k RTR
h -t 2.139668000 -s 2 -d 3 -p cbr -e 1020 -c 2 -a 0 -i 14 -k RTR
r -t 2.149654010 -s 3 -d 3 -p cbr -e 1020 -c 2 -a 0 -i 14 -k AGT
+ -t 2.200000000 -s 0 -d -1 -p cbr -e 1000 -c 2 -a 0 -i 15 -k AGT 
- -t 2.200000000 -s 0 -d -1 -p cbr -e 1000 -c 2 -a 0 -i 15 -k AGT
h -t 2.200000000 -s 0 -d -1 -p cbr -e 1000 -c 2 -a 0 -i 15 -k AGT
+ -t 2.200000000 -s 0 -d 1 -p cbr -e 1020 -c 2 -a 0 -i 15 -k RTR 
- -t 2.200000000 -s 0 -d 1 -p cbr -e 1020 -c 2 -a 0 -i 15 -k RTR
h -t 2.200000000 -s 0 -d 1 -p cbr -e 1020 -c 2 -a 0 -i 15 -k RTR
+ -t 2.209702000 -s 1 -d 2 -p cbr -e 1020 -c 2 -a 0 -i 15 -k RTR 
- -t 2.209702000 -s 1 -d 2 -p cbr -e 1020 -c 2 -a 0 -i 15 -k RTR
h -t 2.209702000 -s 1 -d 2 -p cbr -e 1020 -c 2 -a 0 -i 15 -k RTR
+ -t 2.219768000 -s 2 -d 3 -p cbr -e 1020 -c 2 -a 0 -i 15 -k RTR 
- -t 2.219768000 -s 2 -d 3 -p cbr -e 1020 -c 2 -a 0 -i 15 -k RTR
h -t 2.219768000 -s 2 -d 3 -p cbr -e 1020 -c 2 -a 0 -i 15 -k RTR
r -t 2.229894010 -s 3 -d 3 -p cbr -e 1020 -c 2 -a 0 -i 15 -k AGT
+ -t 2.280000000 -s 0 -d -1 -p cbr -e 1000 -c 2 -a 0 -i 16 -k AGT 
- -t 2.280000000 -s 0 -d -1 -p cbr -e 1000 -c 2 -a 0 -i 16 -k AGT
h -t 2.280000000 -s 0 -d -1 -p cbr -e 1000 -c 2 -a 0 -i 16 -k AGT
+ -t 2.280000000 -s 0 -d 1 -p cbr -e 1020 -c 2 -a 0 -i 16 -k RTR 
- -t 2.280000000 -s 0 -d 1 -p cbr -e 1020 -c 2 -a 0 -i 16 -k RTR
h -t 2.280000000 -s 0 -d 1 -p cbr -e 1020 -c 2 -a 0 -i 16 -k RTR
+ -t 2.289482000 -s 1 -d 2 -p cbr -e 1020 -c 2 -a 0 -i 16 -k RTR 
- -t 2.289482000 -s 1 -d 2 -p cbr -e 1020 -c 2 -a 0 -i 16 -k RTR
h -t 2.289482000 -s 1 -d 2 -p cbr -e 1020 -c 2 -a 0 -i 16 -k RTR
+ -t 2.299708000 -s 2 -d 3 -p cbr -e 1020 -c 2 -a 0 -i 16 -k RTR 
- -t 2.299708000 -s 2 -d 3 -p cbr -e 1020 -c 2 -a 0 -i 16 -k RTR
h -t 2.299708000 -s 2 -d 3 -p cbr -e 1020 -c 2 -a 0 -i 16 -k RTR
+ -t 2.300583658 -s 5 -d -1 -p AODV -e 44 -c 2 -a 0 -i 0 -k RTR 
- -t 2.300583658 -s 5 -d -1 -p AODV -e 44 -c 2 -a 0 -i 0 -k RTR
h -t 2.300583658 -s 5 -d -1 -p AODV -e 44 -c 2 -a 0 -i 0 -k RTR
r -t 2.309714010 -s 3 -d 3 -p cbr -e 1020 -c 2 -a 0 -i 16 -k AGT
r -t 2.310994763 -s 2 -d -1 -p AODV -e 44 -c 2 -a 0 -i 0 -k RTR
r -t 2.310994764 -s 3 -d -1 -p AODV -e 44 -c 2 -a 0 -i 0 -k RTR
r -t 2.310994887 -s 6 -d -1 -p AODV -e 44 -c 2 -a 0 -i 0 -k RTR
+ -t 2.360000000 -s 0 -d -1 -p cbr -e 1000 -c 2 -a 0 -i 17 -k AGT 
- -t 2.360000000 -s 0 -d -1 -p cbr -e 1000 -c 2 -a 0 -i 17 -k AGT
h -t 2.360000000 -s 0 -d -1 -p cbr -e 1000 -c 2 -a 0 -i 17 -k AGT
+ -t 2.360000000 -s 0 -d 1 -p cbr -e 1020 -c 2 -a 0 -i 17 -k RTR 
- -t 2.360000000 -s 0 -d 1 -p cbr -e 1020 -c 2 -a 0 -i 17 -k RTR
h -t 2.360000000 -s 0 -d 1 -p cbr -e 1020 -c 2 -a 0 -i 17 -k RTR
+ -t 2.369442000 -s 1 -d 2 -p cbr -e 1020 -c 2 -a 0 -i 17 -k RTR 
- -t 2.369442000 -s 1 -d 2 -p cbr -e 1020 -c 2 -a 0 -i 17 -k RTR
h -t 2.369442000 -s 1 -d 2 -p cbr -e 1020 -c 2 -a 0 -i 17 -k RTR
+ -t 2.379208000 -s 2 -d 3 -p cbr -e 1020 -c 2 -a 0 -i 17 -k RTR 
- -t 2.379208000 -s 2 -d 3 -p cbr -e 1020 -c 2 -a 0 -i 17 -k RTR
h -t 2.379208000 -s 2 -d 3 -p cbr -e 1020 -c 2 -a 0 -i 17 -k RTR
r -t 2.388934010 -s 3 -d 3 -p cbr -e 1020 -c 2 -a 0 -i 17 -k AGT
+ -t 2.440000000 -s 0 -d -1 -p cbr -e 1000 -c 2 -a 0 -i 18 -k AGT 
- -t 2.440000000 -s 0 -d -1 -p cbr -e 1000 -c 2 -a 0 -i 18 -k AGT
h -t 2.440000000 -s 0 -d -1 -p cbr -e 1000 -c 2 -a 0 -i 18 -k AGT
+ -t 2.440000000 -s 0 -d 1 -p cbr -e 1020 -c 2 -a 0 -i 18 -k RTR 
- -t 2.440000000 -s 0 -d 1 -p cbr -e 1020 -c 2 -a 0 -i 18 -k RTR
h -t 2.440000000 -s 0 -d 1 -p cbr -e 1020 -c 2 -a 0 -i 18 -k RTR
+ -t 2.449682000 -s 1 -d 2 -p cbr -e 1020 -c 2 -a 0 -i 18 -k RTR 
- -t 2.449682000 -s 1 -d 2 -p cbr -e 1020 -c 2 -a 0 -i 18 -k RTR
h -t 2.449682000 -s 1 -d 2 -p cbr -e 1020 -c 2 -a 0 -i 18 -k RTR
+ -t 2.459388000 -s 2 -d 3 -p cbr -e 1020 -c 2 -a 0 -i 18 -k RTR 
- -t 2.459388000 -s 2 -d 3 -p cbr -e 1020 -c 2 -a 0 -i 18 -k RTR
h -t 2.459388000 -s 2 -d 3 -p cbr -e 1020 -c 2 -a 0 -i 18 -k RTR
r -t 2.469414010 -s 3 -d 3 -p cbr -e 1020 -c 2 -a 0 -i 18 -k AGT
+ -t 2.520000000 -s 0 -d -1 -p cbr -e 1000 -c 2 -a 0 -i 19 -k AGT 
- -t 2.520000000 -s 0 -d -1 -p cbr -e 1000 -c 2 -a 0 -i 19 -k AGT
h -t 2.520000000 -s 0 -d -1 -p cbr -e 1000 -c 2 -a 0 -i 19 -k AGT
+ -t 2.520000000 -s 0 -d 1 -p cbr -e 1020 -c 2 -a 0 -i 19 -k RTR 
- -t 2.520000000 -s 0 -d 1 -p cbr -e 1020 -c 2 -a 0 -i 19 -k RTR
h -t 2.520000000 -s 0 -d 1 -p cbr -e 1020 -c 2 -a 0 -i 19 -k RTR
+ -t 2.529742000 -s 1 -d 2 -p cbr -e 1020 -c 2 -a 0 -i 19 -k RTR 
- -t 2.529742000 -s 1 -d 2 -p cbr -e 1020 -c 2 -a 0 -i 19 -k RTR
h -t 2.529742000 -s 1 -d 2 -p cbr -e 1020 -c 2 -a 0 -i 19 -k RTR
+ -t 2.539748000 -s 2 -d 3 -p cbr -e 1020 -c 2 -a 0 -i 19 -k RTR 
- -t 2.539748000 -s 2 -d 3 -p cbr -e 1020 -c 2 -a 0 -i 19 -k RTR
h -t 2.539748000 -s 2 -d 3 -p cbr -e 1020 -c 2 -a 0 -i 19 -k RTR
r -t 2.549774010 -s 3 -d 3 -p cbr -e 1020 -c 2 -a 0 -i 19 -k AGT
+ -t 2.600000000 -s 0 -d -1 -p cbr -e 1000 -c 2 -a 0 -i 20 -k AGT 
- -t 2.600000000 -s 0 -d -1 -p cbr -e 1000 -c 2 -a 0 -i 20 -k AGT
h -t 2.600000000 -s 0 -d -1 -p cbr -e 1000 -c 2 -a 0 -i 20 -k AGT
+ -t 2.600000000 -s 0 -d 1 -p cbr -e 1020 -c 2 -a 0 -i 20 -k RTR 
- -t 2.600000000 -s 0 -d 1 -p cbr -e 1020 -c 2 -a 0 -i 20 -k RTR
h -t 2.600000000 -s 0 -d 1 -p cbr -e 1020 -c 2 -a 0 -i 20 -k RTR
+ -t 2.609662000 -s 1 -d 2 -p cbr -e 1020 -c 2 -a 0 -i 20 -k RTR 
- -t 2.609662000 -s 1 -d 2 -p cbr -e 1020 -c 2 -a 0 -i 20 -k RTR
h -t 2.609662000 -s 1 -d 2 -p cbr -e 1020 -c 2 -a 0 -i 20 -k RTR
+ -t 2.619328000 -s 2 -d 3 -p cbr -e 1020 -c 2 -a 0 -i 20 -k RTR 
- -t 2.619328000 -s 2 -d 3 -p cbr -e 1020 -c 2 -a 0 -i 20 -k RTR
h -t 2.619328000 -s 2 -d 3 -p cbr -e 1020 -c 2 -a 0 -i 20 -k RTR
r -t 2.629234010 -s 3 -d 3 -p cbr -e 1020 -c 2 -a 0 -i 20 -k AGT
+ -t 2.629842076 -s 2 -d -1 -p AODV -e 44 -c 2 -a 0 -i 0 -k RTR 
- -t 2.629842076 -s 2 -d -1 -p AODV -e 44 -c 2 -a 0 -i 0 -k RTR
h -t 2.629842076 -s 2 -d -1 -p AODV -e 44 -c 2 -a 0 -i 0 -k RTR
r -t 2.630815056 -s 5 -d -1 -p AODV -e 44 -c 2 -a 0 -i 0 -k RTR
r -t 2.630815149 -s 6 -d -1 -p AODV -e 44 -c 2 -a 0 -i 0 -k RTR
r -t 2.630815347 -s 1 -d -1 -p AODV -e 44 -c 2 -a 0 -i 0 -k RTR
r -t 2.630815350 -s 3 -d -1 -p AODV -e 44 -c 2 -a 0 -i 0 -k RTR
+ -t 2.680000000 -s 0 -d -1 -p cbr -e 1000 -c 2 -a 0 -i 21 -k AGT 
- -t 2.680000000 -s 0 -d -1 -p cbr -e 1000 -c 2 -a 0 -i 21 -k AGT
h -t 2.680000000 -s 0 -d -1 -p cbr -e 1000 -c 2 -a 0 -i 21 -k AGT
+ -t 2.680000000 -s 0 -d 1 -p cbr -e 1020 -c 2 -a 0 -i 21 -k RTR 
- -t 2.680000000 -s 0 -d 1 -p cbr -e 1020 -c 2 -a 0 -i 21 -k RTR
h -t 2.680000000 -s 0 -d 1 -p cbr -e 1020 -c 2 -a 0 -i 21 -k RTR