s 1.000000000 _0_ AGT  --- 0 cbr 1000 [0 0 0 0] ------- [0:0 7:0 32 0] [0] 0 0
r 1.000000000 _0_ RTR  --- 0 cbr 1000 [0 0 0 0] ------- [0:0 7:0 32 0] [0] 0 0
s 1.000000000 _0_ RTR  --- 0 AODV 48 [0 0 0 0] ------- [0:255 -1:255 30 0] [0x2 1 1 [7 0] [0 4]] (REQUEST)
r 1.001408374 _4_ RTR  --- 0 AODV 48 [0 ffffffff 0 800] ------- [0:255 -1:255 30 0] [0x2 1 1 [7 0] [0 4]] (REQUEST)
r 1.001408667 _1_ RTR  --- 0 AODV 48 [0 ffffffff 0 800] ------- [0:255 -1:255 30 0] [0x2 1 1 [7 0] [0 4]] (REQUEST)
s 1.001550421 _4_ RTR  --- 0 AODV 48 [0 ffffffff 0 800] ------- [4:255 -1:255 29 0] [0x2 2 1 [7 0] [0 4]] (REQUEST)
s 1.002289893 _1_ RTR  --- 0 AODV 48 [0 ffffffff 0 800] ------- [1:255 -1:255 29 0] [0x2 2 1 [7 0] [0 4]] (REQUEST)
r 1.002818795 _0_ RTR  --- 0 AODV 48 [0 ffffffff 4 800] ------- [4:255 -1:255 29 0] [0x2 2 1 [7 0] [0 4]] (REQUEST)
r 1.002818798 _1_ RTR  --- 0 AODV 48 [0 ffffffff 4 800] ------- [4:255 -1:255 29 0] [0x2 2 1 [7 0] [0 4]] (REQUEST)
r 1.003717175 _4_ RTR  --- 0 AODV 48 [0 ffffffff 1 800] ------- [1:255 -1:255 29 0] [0x2 2 1 [7 0] [0 4]] (REQUEST)
r 1.003717465 _2_ RTR  --- 0 AODV 48 [0 ffffffff 1 800] ------- [1:255 -1:255 29 0] [0x2 2 1 [7 0] [0 4]] (REQUEST)
r 1.003717465 _0_ RTR  --- 0 AODV 48 [0 ffffffff 1 800] ------- [1:255 -1:255 29 0] [0x2 2 1 [7 0] [0 4]] (REQUEST)
s 1.006063482 _2_ RTR  --- 0 AODV 48 [0 ffffffff 1 800] ------- [2:255 -1:255 28 0] [0x2 3 1 [7 0] [0 4]] (REQUEST)
r 1.007371858 _5_ RTR  --- 0 AODV 48 [0 ffffffff 2 800] ------- [2:255 -1:255 28 0] [0x2 3 1 [7 0] [0 4]] (REQUEST)
r 1.007371951 _6_ RTR  --- 0 AODV 48 [0 ffffffff 2 800] ------- [2:255 -1:255 28 0] [0x2 3 1 [7 0] [0 4]] (REQUEST)
r 1.007372149 _1_ RTR  --- 0 AODV 48 [0 ffffffff 2 800] ------- [2:255 -1:255 28 0] [0x2 3 1 [7 0] [0 4]] (REQUEST)
r 1.007372152 _3_ RTR  --- 0 AODV 48 [0 ffffffff 2 800] ------- [2:255 -1:255 28 0] [0x2 3 1 [7 0] [0 4]] (REQUEST)
s 1.007800098 _3_ RTR  --- 0 AODV 48 [0 ffffffff 2 800] ------- [3:255 -1:255 27 0] [0x2 4 1 [7 0] [0 4]] (REQUEST)
r 1.008908431 _7_ RTR  --- 0 AODV 48 [0 ffffffff 3 800] ------- [3:255 -1:255 27 0] [0x2 4 1 [7 0] [0 4]] (REQUEST)
s 1.008908431 _7_ RTR  --- 0 AODV 44 [0 0 0 0] ------- [7:255 0:255 30 3] [0x4 1 [7 4] 10.000000] (REPLY)
r 1.008908475 _5_ RTR  --- 0 AODV 48 [0 ffffffff 3 800] ------- [3:255 -1:255 27 0] [0x2 4 1 [7 0] [0 4]] (REQUEST)
r 1.008908567 _6_ RTR  --- 0 AODV 48 [0 ffffffff 3 800] ------- [3:255 -1:255 27 0] [0x2 4 1 [7 0] [0 4]] (REQUEST)
r 1.008908768 _2_ RTR  --- 0 AODV 48 [0 ffffffff 3 800] ------- [3:255 -1:255 27 0] [0x2 4 1 [7 0] [0 4]] (REQUEST)
s 1.009013405 _6_ RTR  --- 0 AODV 48 [0 ffffffff 2 800] ------- [6:255 -1:255 27 0] [0x2 4 1 [7 0] [0 4]] (REQUEST)
r 1.010875644 _3_ RTR  --- 0 AODV 48 [0 ffffffff 6 800] ------- [6:255 -1:255 27 0] [0x2 4 1 [7 0] [0 4]] (REQUEST)
r 1.010875644 _2_ RTR  --- 0 AODV 48 [0 ffffffff 6 800] ------- [6:255 -1:255 27 0] [0x2 4 1 [7 0] [0 4]] (REQUEST)
r 1.010875675 _5_ RTR  --- 0 AODV 48 [0 ffffffff 6 800] ------- [6:255 -1:255 27 0] [0x2 4 1 [7 0] [0 4]] (REQUEST)
r 1.010875919 _7_ RTR  --- 0 AODV 48 [0 ffffffff 6 800] ------- [6:255 -1:255 27 0] [0x2 4 1 [7 0] [0 4]] (REQUEST)
r 1.014567644 _3_ RTR  --- 0 AODV 44 [13a 3 7 800] ------- [7:255 0:255 30 3] [0x4 1 [7 4] 10.000000] (REPLY)
f 1.014567644 _3_ RTR  --- 0 AODV 44 [13a 3 7 800] ------- [7:255 0:255 29 2] [0x4 2 [7 4] 10.000000] (REPLY)
s 1.015735093 _5_ RTR  --- 0 AODV 48 [0 ffffffff 2 800] ------- [5:255 -1:255 27 0] [0x2 4 1 [7 0] [0 4]] (REQUEST)
r 1.016738397 _2_ RTR  --- 0 AODV 48 [0 ffffffff 5 800] ------- [5:255 -1:255 27 0] [0x2 4 1 [7 0] [0 4]] (REQUEST)
r 1.016738398 _3_ RTR  --- 0 AODV 48 [0 ffffffff 5 800] ------- [5:255 -1:255 27 0] [0x2 4 1 [7 0] [0 4]] (REQUEST)
r 1.016738521 _6_ RTR  --- 0 AODV 48 [0 ffffffff 5 800] ------- [5:255 -1:255 27 0] [0x2 4 1 [7 0] [0 4]] (REQUEST)
r 1.016738712 _7_ RTR  --- 0 AODV 48 [0 ffffffff 5 800] ------- [5:255 -1:255 27 0] [0x2 4 1 [7 0] [0 4]] (REQUEST)
r 1.021032417 _2_ RTR  --- 0 AODV 44 [13a 2 3 800] ------- [7:255 0:255 29 2] [0x4 2 [7 4] 10.000000] (REPLY)
f 1.021032417 _2_ RTR  --- 0 AODV 44 [13a 2 3 800] ------- [7:255 0:255 28 1] [0x4 3 [7 4] 10.000000] (REPLY)
r 1.026564084 _1_ RTR  --- 0 AODV 44 [13a 1 2 800] ------- [7:255 0:255 28 1] [0x4 3 [7 4] 10.000000] (REPLY)
f 1.026564084 _1_ RTR  --- 0 AODV 44 [13a 1 2 800] ------- [7:255 0:255 27 0] [0x4 4 [7 4] 10.000000] (REPLY)
r 1.031175751 _0_ RTR  --- 0 AODV 44 [13a 0 1 800] ------- [7:255 0:255 27 0] [0x4 4 [7 4] 10.000000] (REPLY)
s 1.031175751 _0_ RTR  --- 0 cbr 1020 [0 0 0 0] ------- [0:0 7:0 30 1] [0] 0 0
r 1.041281751 _1_ RTR  --- 0 cbr 1020 [13a 1 0 800] ------- [0:0 7:0 30 1] [0] 1 0
f 1.041281751 _1_ RTR  --- 0 cbr 1020 [13a 1 0 800] ------- [0:0 7:0 29 2] [0] 1 0
r 1.051147751 _2_ RTR  --- 0 cbr 1020 [13a 2 1 800] ------- [0:0 7:0 29 2] [0] 2 0
f 1.051147751 _2_ RTR  --- 0 cbr 1020 [13a 2 1 800] ------- [0:0 7:0 28 3] [0] 2 0
r 1.060873761 _3_ RTR  --- 0 cbr 1020 [13a 3 2 800] ------- [0:0 7:0 28 3] [0] 3 0
f 1.060873761 _3_ RTR  --- 0 cbr 1020 [13a 3 2 800] ------- [0:0 7:0 27 7] [0] 3 0
r 1.070878761 _7_ AGT  --- 0 cbr 1020 [13a 7 3 800] ------- [0:0 7:0 27 7] [0] 4 0
s 1.080000000 _0_ AGT  --- 1 cbr 1000 [0 0 0 0] ------- [0:0 7:0 32 0] [1] 0 0
r 1.080000000 _0_ RTR  --- 1 cbr 1000 [0 0 0 0] ------- [0:0 7:0 32 0] [1] 0 0
s 1.080000000 _0_ RTR  --- 1 cbr 1020 [0 0 0 0] ------- [0:0 7:0 30 1] [1] 0 0
r 1.089582000 _1_ RTR  --- 1 cbr 1020 [13a 1 0 800] ------- [0:0 7:0 30 1] [1] 1 0
f 1.089582000 _1_ RTR  --- 1 cbr 1020 [13a 1 0 800] ------- [0:0 7:0 29 2] [1] 1 0
r 1.099528000 _2_ RTR  --- 1 cbr 1020 [13a 2 1 800] ------- [0:0 7:0 29 2] [1] 2 0
f 1.099528000 _2_ RTR  --- 1 cbr 1020 [13a 2 1 800] ------- [0:0 7:0 28 3] [1] 2 0
r 1.109194010 _3_ RTR  --- 1 cbr 1020 [13a 3 2 800] ------- [0:0 7:0 28 3] [1] 3 0
f 1.109194010 _3_ RTR  --- 1 cbr 1020 [13a 3 2 800] ------- [0:0 7:0 27 7] [1] 3 0
r 1.119179010 _7_ AGT  --- 1 cbr 1020 [13a 7 3 800] ------- [0:0 7:0 27 7] [1] 4 0
s 1.160000000 _0_ AGT  --- 2 cbr 1000 [0 0 0 0] ------- [0:0 7:0 32 0] [2] 0 0
r 1.160000000 _0_ RTR  --- 2 cbr 1000 [0 0 0 0] ------- [0:0 7:0 32 0] [2] 0 0
s 1.160000000 _0_ RTR  --- 2 cbr 1020 [0 0 0 0] ------- [0:0 7:0 30 1] [2] 0 0
r 1.169482000 _1_ RTR  --- 2 cbr 1020 [13a 1 0 800] ------- [0:0 7:0 30 1] [2] 1 0
f 1.169482000 _1_ RTR  --- 2 cbr 1020 [13a 1 0 800] ------- [0:0 7:0 29 2] [2] 1 0
r 1.179448000 _2_ RTR  --- 2 cbr 1020 [13a 2 1 800] ------- [0:0 7:0 29 2] [2] 2 0
f 1.179448000 _2_ RTR  --- 2 cbr 1020 [13a 2 1 800] ------- [0:0 7:0 28 3] [2] 2 0
r 1.189354010 _3_ RTR  --- 2 cbr 1020 [13a 3 2 800] ------- [0:0 7:0 28 3] [2] 3 0
f 1.189354010 _3_ RTR  --- 2 cbr 1020 [13a 3 2 800] ------- [0:0 7:0 27 7] [2] 3 0
r 1.199299010 _7_ AGT  --- 2 cbr 1020 [13a 7 3 800] ------- [0:0 7:0 27 7] [2] 4 0
s 1.240000000 _0_ AGT  --- 3 cbr 1000 [0 0 0 0] ------- [0:0 7:0 32 0] [3] 0 0
r 1.240000000 _0_ RTR  --- 3 cbr 1000 [0 0 0 0] ------- [0:0 7:0 32 0] [3] 0 0
s 1.240000000 _0_ RTR  --- 3 cbr 1020 [0 0 0 0] ------- [0:0 7:0 30 1] [3] 0 0
r 1.249642000 _1_ RTR  --- 3 cbr 1020 [13a 1 0 800] ------- [0:0 7:0 30 1] [3] 1 0
f 1.249642000 _1_ RTR  --- 3 cbr 1020 [13a 1 0 800] ------- [0:0 7:0 29 2] [3] 1 0
r 1.259428000 _2_ RTR  --- 3 cbr 1020 [13a 2 1 800] ------- [0:0 7:0 29 2] [3] 2 0
f 1.259428000 _2_ RTR  --- 3 cbr 1020 [13a 2 1 800] ------- [0:0 7:0 28 3] [3] 2 0
r 1.269134010 _3_ RTR  --- 3 cbr 1020 [13a 3 2 800] ------- [0:0 7:0 28 3] [3] 3 0
f 1.269134010 _3_ RTR  --- 3 cbr 1020 [13a 3 2 800] ------- [0:0 7:0 27 7] [3] 3 0
r 1.278919010 _7_ AGT  --- 3 cbr 1020 [13a 7 3 800] ------- [0:0 7:0 27 7] [3] 4 0
s 1.320000000 _0_ AGT  --- 4 cbr 1000 [0 0 0 0] ------- [0:0 7:0 32 0] [4] 0 0
r 1.320000000 _0_ RTR  --- 4 cbr 1000 [0 0 0 0] ------- [0:0 7:0 32 0] [4] 0 0
s 1.320000000 _0_ RTR  --- 4 cbr 1020 [0 0 0 0] ------- [0:0 7:0 30 1] [4] 0 0
r 1.329482000 _1_ RTR  --- 4 cbr 1020 [13a 1 0 800] ------- [0:0 7:0 30 1] [4] 1 0
f 1.329482000 _1_ RTR  --- 4 cbr 1020 [13a 1 0 800] ------- [0:0 7:0 29 2] [4] 1 0
r 1.339408000 _2_ RTR  --- 4 cbr 1020 [13a 2 1 800] ------- [0:0 7:0 29 2] [4] 2 0
f 1.339408000 _2_ RTR  --- 4 cbr 1020 [13a 2 1 800] ------- [0:0 7:0 28 3] [4] 2 0
r 1.349134010 _3_ RTR  --- 4 cbr 1020 [13a 3 2 800] ------- [0:0 7:0 28 3] [4] 3 0
f 1.349134010 _3_ RTR  --- 4 cbr 1020 [13a 3 2 800] ------- [0:0 7:0 27 7] [4] 3 0
r 1.359399010 _7_ AGT  --- 4 cbr 1020 [13a 7 3 800] ------- [0:0 7:0 27 7] [4] 4 0
s 1.400000000 _0_ AGT  --- 5 cbr 1000 [0 0 0 0] ------- [0:0 7:0 32 0] [5] 0 0
r 1.400000000 _0_ RTR  --- 5 cbr 1000 [0 0 0 0] ------- [0:0 7:0 32 0] [5] 0 0
s 1.400000000 _0_ RTR  --- 5 cbr 1020 [0 0 0 0] ------- [0:0 7:0 30 1] [5] 0 0
r 1.409982000 _1_ RTR  --- 5 cbr 1020 [13a 1 0 800] ------- [0:0 7:0 30 1] [5] 1 0
f 1.409982000 _1_ RTR  --- 5 cbr 1020 [13a 1 0 800] ------- [0:0 7:0 29 2] [5] 1 0
r 1.419768000 _2_ RTR  --- 5 cbr 1020 [13a 2 1 800] ------- [0:0 7:0 29 2] [5] 2 0
f 1.419768000 _2_ RTR  --- 5 cbr 1020 [13a 2 1 800] ------- [0:0 7:0 28 3] [5] 2 0
r 1.429874010 _3_ RTR  --- 5 cbr 1020 [13a 3 2 800] ------- [0:0 7:0 28 3] [5] 3 0
f 1.429874010 _3_ RTR  --- 5 cbr 1020 [13a 3 2 800] ------- [0:0 7:0 27 7] [5] 3 0
r 1.439839010 _7_ AGT  --- 5 cbr 1020 [13a 7 3 800] ------- [0:0 7:0 27 7] [5] 4 0
s 1.480000000 _0_ AGT  --- 6 cbr 1000 [0 0 0 0] ------- [0:0 7:0 32 0] [6] 0 0
r 1.480000000 _0_ RTR  --- 6 cbr 1000 [0 0 0 0] ------- [0:0 7:0 32 0] [6] 0 0
s 1.480000000 _0_ RTR  --- 6 cbr 1020 [0 0 0 0] ------- [0:0 7:0 30 1] [6] 0 0
r 1.489742000 _1_ RTR  --- 6 cbr 1020 [13a 1 0 800] ------- [0:0 7:0 30 1] [6] 1 0
f 1.489742000 _1_ RTR  --- 6 cbr 1020 [13a 1 0 800] ------- [0:0 7:0 29 2] [6] 1 0
r 1.499448000 _2_ RTR  --- 6 cbr 1020 [13a 2 1 800] ------- [0:0 7:0 29 2] [6] 2 0
f 1.499448000 _2_ RTR  --- 6 cbr 1020 [13a 2 1 800] ------- [0:0 7:0 28 3] [6] 2 0
r 1.509334010 _3_ RTR  --- 6 cbr 1020 [13a 3 2 800] ------- [0:0 7:0 28 3] [6] 3 0
f 1.509334010 _3_ RTR  --- 6 cbr 1020 [13a 3 2 800] ------- [0:0 7:0 27 7] [6] 3 0
r 1.519159010 _7_ AGT  --- 6 cbr 1020 [13a 7 3 800] ------- [0:0 7:0 27 7] [6] 4 0
s 1.560000000 _0_ AGT  --- 7 cbr 1000 [0 0 0 0] ------- [0:0 7:0 32 0] [7] 0 0
r 1.560000000 _0_ RTR  --- 7 cbr 1000 [0 0 0 0] ------- [0:0 7:0 32 0] [7] 0 0
s 1.560000000 _0_ RTR  --- 7 cbr 1020 [0 0 0 0] ------- [0:0 7:0 30 1] [7] 0 0
r 1.569522000 _1_ RTR  --- 7 cbr 1020 [13a 1 0 800] ------- [0:0 7:0 30 1] [7] 1 0
f 1.569522000 _1_ RTR  --- 7 cbr 1020 [13a 1 0 800] ------- [0:0 7:0 29 2] [7] 1 0
r 1.579348000 _2_ RTR  --- 7 cbr 1020 [13a 2 1 800] ------- [0:0 7:0 29 2] [7] 2 0
f 1.579348000 _2_ RTR  --- 7 cbr 1020 [13a 2 1 800] ------- [0:0 7:0 28 3] [7] 2 0
r 1.589014010 _3_ RTR  --- 7 cbr 1020 [13a 3 2 800] ------- [0:0 7:0 28 3] [7] 3 0
f 1.589014010 _3_ RTR  --- 7 cbr 1020 [13a 3 2 800] ------- [0:0 7:0 27 7] [7] 3 0
r 1.599039010 _7_ AGT  --- 7 cbr 1020 [13a 7 3 800] ------- [0:0 7:0 27 7] [7] 4 0
s 1.640000000 _0_ AGT  --- 8 cbr 1000 [0 0 0 0] ------- [0:0 7:0 32 0] [8] 0 0
r 1.640000000 _0_ RTR  --- 8 cbr 1000 [0 0 0 0] ------- [0:0 7:0 32 0] [8] 0 0
s 1.640000000 _0_ RTR  --- 8 cbr 1020 [0 0 0 0] ------- [0:0 7:0 30 1] [8] 0 0
r 1.649902000 _1_ RTR  --- 8 cbr 1020 [13a 1 0 800] ------- [0:0 7:0 30 1] [8] 1 0
f 1.649902000 _1_ RTR  --- 8 cbr 1020 [13a 1 0 800] ------- [0:0 7:0 29 2] [8] 1 0
r 1.659888000 _2_ RTR  --- 8 cbr 1020 [13a 2 1 800] ------- [0:0 7:0 29 2] [8] 2 0
f 1.659888000 _2_ RTR  --- 8 cbr 1020 [13a 2 1 800] ------- [0:0 7:0 28 3] [8] 2 0
r 1.669574010 _3_ RTR  --- 8 cbr 1020 [13a 3 2 800] ------- [0:0 7:0 28 3] [8] 3 0
f 1.669574010 _3_ RTR  --- 8 cbr 1020 [13a 3 2 800] ------- [0:0 7:0 27 7] [8] 3 0
r 1.679339010 _7_ AGT  --- 8 cbr 1020 [13a 7 3 800] ------- [0:0 7:0 27 7] [8] 4 0
s 1.720000000 _0_ AGT  --- 9 cbr 1000 [0 0 0 0] ------- [0:0 7:0 32 0] [9] 0 0
r 1.720000000 _0_ RTR  --- 9 cbr 1000 [0 0 0 0] ------- [0:0 7:0 32 0] [9] 0 0
s 1.720000000 _0_ RTR  --- 9 cbr 1020 [0 0 0 0] ------- [0:0 7:0 30 1] [9] 0 0
r 1.729922000 _1_ RTR  --- 9 cbr 1020 [13a 1 0 800] ------- [0:0 7:0 30 1] [9] 1 0
f 1.729922000 _1_ RTR  --- 9 cbr 1020 [13a 1 0 800] ------- [0:0 7:0 29 2] [9] 1 0
r 1.740188000 _2_ RTR  --- 9 cbr 1020 [13a 2 1 800] ------- [0:0 7:0 29 2] [9] 2 0
f 1.740188000 _2_ RTR  --- 9 cbr 1020 [13a 2 1 800] ------- [0:0 7:0 28 3] [9] 2 0
r 1.749874010 _3_ RTR  --- 9 cbr 1020 [13a 3 2 800] ------- [0:0 7:0 28 3] [9] 3 0
f 1.749874010 _3_ RTR  --- 9 cbr 1020 [13a 3 2 800] ------- [0:0 7:0 27 7] [9] 3 0
r 1.759599010 _7_ AGT  --- 9 cbr 1020 [13a 7 3 800] ------- [0:0 7:0 27 7] [9] 4 0
s 1.800000000 _0_ AGT  --- 10 cbr 1000 [0 0 0 0] ------- [0:0 7:0 32 0] [10] 0 0
r 1.800000000 _0_ RTR  --- 10 cbr 1000 [0 0 0 0] ------- [0:0 7:0 32 0] [10] 0 0
s 1.800000000 _0_ RTR  --- 10 cbr 1020 [0 0 0 0] ------- [0:0 7:0 30 1] [10] 0 0
r 1.809422000 _1_ RTR  --- 10 cbr 1020 [13a 1 0 800] ------- [0:0 7:0 30 1] [10] 1 0
f 1.809422000 _1_ RTR  --- 10 cbr 1020 [13a 1 0 800] ------- [0:0 7:0 29 2] [10] 1 0
r 1.819468000 _2_ RTR  --- 10 cbr 1020 [13a 2 1 800] ------- [0:0 7:0 29 2] [10] 2 0
f 1.819468000 _2_ RTR  --- 10 cbr 1020 [13a 2 1 800] ------- [0:0 7:0 28 3] [10] 2 0
r 1.829514010 _3_ RTR  --- 10 cbr 1020 [13a 3 2 800] ------- [0:0 7:0 28 3] [10] 3 0
f 1.829514010 _3_ RTR  --- 10 cbr 1020 [13a 3 2 800] ------- [0:0 7:0 27 7] [10] 3 0
r 1.839499010 _7_ AGT  --- 10 cbr 1020 [13a 7 3 800] ------- [0:0 7:0 27 7] [10] 4 0
s 1.880000000 _0_ AGT  --- 11 cbr 1000 [0 0 0 0] ------- [0:0 7:0 32 0] [11] 0 0
r 1.880000000 _0_ RTR  --- 11 cbr 1000 [0 0 0 0] ------- [0:0 7:0 32 0] [11] 0 0
s 1.880000000 _0_ RTR  --- 11 cbr 1020 [0 0 0 0] ------- [0:0 7:0 30 1] [11] 0 0
r 1.889582000 _1_ RTR  --- 11 cbr 1020 [13a 1 0 800] ------- [0:0 7:0 30 1] [11] 1 0
f 1.889582000 _1_ RTR  --- 11 cbr 1020 [13a 1 0 800] ------- [0:0 7:0 29 2] [11] 1 0
r 1.899388000 _2_ RTR  --- 11 cbr 1020 [13a 2 1 800] ------- [0:0 7:0 29 2] [11] 2 0
f 1.899388000 _2_ RTR  --- 11 cbr 1020 [13a 2 1 800] ------- [0:0 7:0 28 3] [11] 2 0
r 1.909054010 _3_ RTR  --- 11 cbr 1020 [13a 3 2 800] ------- [0:0 7:0 28 3] [11] 3 0
f 1.909054010 _3_ RTR  --- 11 cbr 1020 [13a 3 2 800] ------- [0:0 7:0 27 7] [11] 3 0
r 1.918719010 _7_ AGT  --- 11 cbr 1020 [13a 7 3 800] ------- [0:0 7:0 27 7] [11] 4 0
s 1.960000000 _0_ AGT  --- 12 cbr 1000 [0 0 0 0] ------- [0:0 7:0 32 0] [12] 0 0
r 1.960000000 _0_ RTR  --- 12 cbr 1000 [0 0 0 0] ------- [0:0 7:0 32 0] [12] 0 0
s 1.960000000 _0_ RTR  --- 12 cbr 1020 [0 0 0 0] ------- [0:0 7:0 30 1] [12] 0 0
r 1.969982000 _1_ RTR  --- 12 cbr 1020 [13a 1 0 800] ------- [0:0 7:0 30 1] [12] 1 0
f 1.969982000 _1_ RTR  --- 12 cbr 1020 [13a 1 0 800] ------- [0:0 7:0 29 2] [12] 1 0
r 1.980228000 _2_ RTR  --- 12 cbr 1020 [13a 2 1 800] ------- [0:0 7:0 29 2] [12] 2 0
f 1.980228000 _2_ RTR  --- 12 cbr 1020 [13a 2 1 800] ------- [0:0 7:0 28 3] [12] 2 0
r 1.990414010 _3_ RTR  --- 12 cbr 1020 [13a 3 2 800] ------- [0:0 7:0 28 3] [12] 3 0
f 1.990414010 _3_ RTR  --- 12 cbr 1020 [13a 3 2 800] ------- [0:0 7:0 27 7] [12] 3 0
r 2.000319010 _7_ AGT  --- 12 cbr 1020 [13a 7 3 800] ------- [0:0 7:0 27 7] [12] 4 0
s 2.040000000 _0_ AGT  --- 13 cbr 1000 [0 0 0 0] ------- [0:0 7:0 32 0] [13] 0 0
r 2.040000000 _0_ RTR  --- 13 cbr 1000 [0 0 0 0] ------- [0:0 7:0 32 0] [13] 0 0
s 2.040000000 _0_ RTR  --- 13 cbr 1020 [0 0 0 0] ------- [0:0 7:0 30 1] [13] 0 0
r 2.049582000 _1_ RTR  --- 13 cbr 1020 [13a 1 0 800] ------- [0:0 7:0 30 1] [13] 1 0
f 2.049582000 _1_ RTR  --- 13 cbr 1020 [13a 1 0 800] ------- [0:0 7:0 29 2] [13] 1 0
r 2.059248000 _2_ RTR  --- 13 cbr 1020 [13a 2 1 800] ------- [0:0 7:0 29 2] [13] 2 0
f 2.059248000 _2_ RTR  --- 13 cbr 1020 [13a 2 1 800] ------- [0:0 7:0 28 3] [13] 2 0
r 2.069414010 _3_ RTR  --- 13 cbr 1020 [13a 3 2 800] ------- [0:0 7:0 28 3] [13] 3 0
f 2.069414010 _3_ RTR  --- 13 cbr 1020 [13a 3 2 800] ------- [0:0 7:0 27 7] [13] 3 0
r 2.079079010 _7_ AGT  --- 13 cbr 1020 [13a 7 3 800] ------- [0:0 7:0 27 7] [13] 4 0
s 2.120000000 _0_ AGT  --- 14 cbr 1000 [0 0 0 0] ------- [0:0 7:0 32 0] [14] 0 0
r 2.120000000 _0_ RTR  --- 14 cbr 1000 [0 0 0 0] ------- [0:0 7:0 32 0] [14] 0 0
s 2.120000000 _0_ RTR  --- 14 cbr 1020 [0 0 0 0] ------- [0:0 7:0 30 1] [14] 0 0
r 2.129562000 _1_ RTR  --- 14 cbr 1020 [13a 1 0 800] ------- [0:0 7:0 30 1] [14] 1 0
f 2.129562000 _1_ RTR  --- 14 cbr 1020 [13a 1 0 800] ------- [0:0 7:0 29 2] [14] 1 0
r 2.139728000 _2_ RTR  --- 14 cbr 1020 [13a 2 1 800] ------- [0:0 7:0 29 2] [14] 2 0
f 2.139728000 _2_ RTR  --- 14 cbr 1020 [13a 2 1 800] ------- [0:0 7:0 28 3] [14] 2 0
r 2.149534010 _3_ RTR  --- 14 cbr 1020 [13a 3 2 800] ------- [0:0 7:0 28 3] [14] 3 0
f 2.149534010 _3_ RTR  --- 14 cbr 1020 [13a 3 2 800] ------- [0:0 7:0 27 7] [14] 3 0
r 2.159739010 _7_ AGT  --- 14 cbr 1020 [13a 7 3 800] ------- [0:0 7:0 27 7] [14] 4 0
s 2.200000000 _0_ AGT  --- 15 cbr 1000 [0 0 0 0] ------- [0:0 7:0 32 0] [15] 0 0
r 2.200000000 _0_ RTR  --- 15 cbr 1000 [0 0 0 0] ------- [0:0 7:0 32 0] [15] 0 0
s 2.200000000 _0_ RTR  --- 15 cbr 1020 [0 0 0 0] ------- [0:0 7:0 30 1] [15] 0 0
r 2.209762000 _1_ RTR  --- 15 cbr 1020 [13a 1 0 800] ------- [0:0 7:0 30 1] [15] 1 0
f 2.209762000 _1_ RTR  --- 15 cbr 1020 [13a 1 0 800] ------- [0:0 7:0 29 2] [15] 1 0
r 2.219428000 _2_ RTR  --- 15 cbr 1020 [13a 2 1 800] ------- [0:0 7:0 29 2] [15] 2 0
f 2.219428000 _2_ RTR  --- 15 cbr 1020 [13a 2 1 800] ------- [0:0 7:0 28 3] [15] 2 0
r 2.229654010 _3_ RTR  --- 15 cbr 1020 [13a 3 2 800] ------- [0:0 7:0 28 3] [15] 3 0
f 2.229654010 _3_ RTR  --- 15 cbr 1020 [13a 3 2 800] ------- [0:0 7:0 27 7] [15] 3 0
r 2.239659010 _7_ AGT  --- 15 cbr 1020 [13a 7 3 800] ------- [0:0 7:0 27 7] [15] 4 0
s 2.280000000 _0_ AGT  --- 16 cbr 1000 [0 0 0 0] ------- [0:0 7:0 32 0] [16] 0 0
r 2.280000000 _0_ RTR  --- 16 cbr 1000 [0 0 0 0] ------- [0:0 7:0 32 0] [16] 0 0
s 2.280000000 _0_ RTR  --- 16 cbr 1020 [0 0 0 0] ------- [0:0 7:0 30 1] [16] 0 0
r 2.289442000 _1_ RTR  --- 16 cbr 1020 [13a 1 0 800] ------- [0:0 7:0 30 1] [16] 1 0
f 2.289442000 _1_ RTR  --- 16 cbr 1020 [13a 1 0 800] ------- [0:0 7:0 29 2] [16] 1 0
r 2.299628000 _2_ RTR  --- 16 cbr 1020 [13a 2 1 800] ------- [0:0 7:0 29 2] [16] 2 0
f 2.299628000 _2_ RTR  --- 16 cbr 1020 [13a 2 1 800] ------- [0:0 7:0 28 3] [16] 2 0
r 2.309374010 _3_ RTR  --- 16 cbr 1020 [13a 3 2 800] ------- [0:0 7:0 28 3] [16] 3 0
f 2.309374010 _3_ RTR  --- 16 cbr 1020 [13a 3 2 800] ------- [0:0 7:0 27 7] [16] 3 0
r 2.319039010 _7_ AGT  --- 16 cbr 1020 [13a 7 3 800] ------- [0:0 7:0 27 7] [16] 4 0
s 2.360000000 _0_ AGT  --- 17 cbr 1000 [0 0 0 0] ------- [0:0 7:0 32 0] [17] 0 0
r 2.360000000 _0_ RTR  --- 17 cbr 1000 [0 0 0 0] ------- [0:0 7:0 32 0] [17] 0 0
s 2.360000000 _0_ RTR  --- 17 cbr 1020 [0 0 0 0] ------- [0:0 7:0 30 1] [17] 0 0
r 2.369782000 _1_ RTR  --- 17 cbr 1020 [13a 1 0 800] ------- [0:0 7:0 30 1] [17] 1 0
f 2.369782000 _1_ RTR  --- 17 cbr 1020 [13a 1 0 800] ------- [0:0 7:0 29 2] [17] 1 0
r 2.379508000 _2_ RTR  --- 17 cbr 1020 [13a 2 1 800] ------- [0:0 7:0 29 2] [17] 2 0
f 2.379508000 _2_ RTR  --- 17 cbr 1020 [13a 2 1 800] ------- [0:0 7:0 28 3] [17] 2 0
r 2.389574010 _3_ RTR  --- 17 cbr 1020 [13a 3 2 800] ------- [0:0 7:0 28 3] [17] 3 0
f 2.389574010 _3_ RTR  --- 17 cbr 1020 [13a 3 2 800] ------- [0:0 7:0 27 7] [17] 3 0
r 2.399699010 _7_ AGT  --- 17 cbr 1020 [13a 7 3 800] ------- [0:0 7:0 27 7] [17] 4 0
s 2.440000000 _0_ AGT  --- 18 cbr 1000 [0 0 0 0] ------- [0:0 7:0 32 0] [18] 0 0
r 2.440000000 _0_ RTR  --- 18 cbr 1000 [0 0 0 0] ------- [0:0 7:0 32 0] [18] 0 0
s 2.440000000 _0_ RTR  --- 18 cbr 1020 [0 0 0 0] ------- [0:0 7:0 30 1] [18] 0 0
r 2.449482000 _1_ RTR  --- 18 cbr 1020 [13a 1 0 800] ------- [0:0 7:0 30 1] [18] 1 0
f 2.449482000 _1_ RTR  --- 18 cbr 1020 [13a 1 0 800] ------- [0:0 7:0 29 2] [18] 1 0
r 2.459708000 _2_ RTR  --- 18 cbr 1020 [13a 2 1 800] ------- [0:0 7:0 29 2] [18] 2 0
f 2.459708000 _2_ RTR  --- 18 cbr 1020 [13a 2 1 800] ------- [0:0 7:0 28 3] [18] 2 0
r 2.469714010 _3_ RTR  --- 18 cbr 1020 [13a 3 2 800] ------- [0:0 7:0 28 3] [18] 3 0
f 2.469714010 _3_ RTR  --- 18 cbr 1020 [13a 3 2 800] ------- [0:0 7:0 27 7] [18] 3 0
r 2.479739010 _7_ AGT  --- 18 cbr 1020 [13a 7 3 800] ------- [0:0 7:0 27 7] [18] 4 0
s 2.520000000 _0_ AGT  --- 19 cbr 1000 [0 0 0 0] ------- [0:0 7:0 32 0] [19] 0 0
r 2.520000000 _0_ RTR  --- 19 cbr 1000 [0 0 0 0] ------- [0:0 7:0 32 0] [19] 0 0
s 2.520000000 _0_ RTR  --- 19 cbr 1020 [0 0 0 0] ------- [0:0 7:0 30 1] [19] 0 0
r 2.529922000 _1_ RTR  --- 19 cbr 1020 [13a 1 0 800] ------- [0:0 7:0 30 1] [19] 1 0
f 2.529922000 _1_ RTR  --- 19 cbr 1020 [13a 1 0 800] ------- [0:0 7:0 29 2] [19] 1 0
r 2.539628000 _2_ RTR  --- 19 cbr 1020 [13a 2 1 800] ------- [0:0 7:0 29 2] [19] 2 0
f 2.539628000 _2_ RTR  --- 19 cbr 1020 [13a 2 1 800] ------- [0:0 7:0 28 3] [19] 2 0
r 2.549754010 _3_ RTR  --- 19 cbr 1020 [13a 3 2 800] ------- [0:0 7:0 28 3] [19] 3 0
f 2.549754010 _3_ RTR  --- 19 cbr 1020 [13a 3 2 800] ------- [0:0 7:0 27 7] [19] 3 0
r 2.559939010 _7_ AGT  --- 19 cbr 1020 [13a 7 3 800] ------- [0:0 7:0 27 7] [19] 4 0
s 2.600000000 _0_ AGT  --- 20 cbr 1000 [0 0 0 0] ------- [0:0 7:0 32 0] [20] 0 0
r 2.600000000 _0_ RTR  --- 20 cbr 1000 [0 0 0 0] ------- [0:0 7:0 32 0] [20] 0 0
s 2.600000000 _0_ RTR  --- 20 cbr 1020 [0 0 0 0] ------- [0:0 7:0 30 1] [20] 0 0
r 2.609442000 _1_ RTR  --- 20 cbr 1020 [13a 1 0 800] ------- [0:0 7:0 30 1] [20] 1 0
f 2.609442000 _1_ RTR  --- 20 cbr 1020 [13a 1 0 800] ------- [0:0 7:0 29 2] [20] 1 0
r 2.619368000 _2_ RTR  --- 20 cbr 1020 [13a 2 1 800] ------- [0:0 7:0 29 2] [20] 2 0
f 2.619368000 _2_ RTR  --- 20 cbr 1020 [13a 2 1 800] ------- [0:0 7:0 28 3] [20] 2 0
r 2.629394010 _3_ RTR  --- 20 cbr 1020 [13a 3 2 800] ------- [0:0 7:0 28 3] [20] 3 0
f 2.629394010 _3_ RTR  --- 20 cbr 1020 [13a 3 2 800] ------- [0:0 7:0 27 7] [20] 3 0
r 2.639399010 _7_ AGT  --- 20 cbr 1020 [13a 7 3 800] ------- [0:0 7:0 27 7] [20] 4 0
s 2.680000000 _0_ AGT  --- 21 cbr 1000 [0 0 0 0] ------- [0:0 7:0 32 0] [21] 0 0
r 2.680000000 _0_ RTR  --- 21 cbr 1000 [0 0 0 0] ------- [0:0 7:0 32 0] [21] 0 0
s 2.680000000 _0_ RTR  --- 21 cbr 1020 [0 0 0 0] ------- [0:0 7:0 30 1] [21] 0 0
r 2.689762000 _1_ RTR  --- 21 cbr 1020 [13a 1 0 800] ------- [0:0 7:0 30 1] [21] 1 0
f 2.689762000 _1_ RTR  --- 21 cbr 1020 [13a 1 0 800] ------- [0:0 7:0 29 2] [21] 1 0
r 2.699908000 _2_ RTR  --- 21 cbr 1020 [13a 2 1 800] ------- [0:0 7:0 29 2] [21] 2 0
f 2.699908000 _2_ RTR  --- 21 cbr 1020 [13a 2 1 800] ------- [0:0 7:0 28 3] [21] 2 0
r 2.709834010 _3_ RTR  --- 21 cbr 1020 [13a 3 2 800] ------- [0:0 7:0 28 3] [21] 3 0
f 2.709834010 _3_ RTR  --- 21 cbr 1020 [13a 3 2 800] ------- [0:0 7:0 27 7] [21] 3 0
r 2.719919010 _7_ AGT  --- 21 cbr 1020 [13a 7 3 800] ------- [0:0 7:0 27 7] [21] 4 0
s 2.760000000 _0_ AGT  --- 22 cbr 1000 [0 0 0 0] ------- [0:0 7:0 32 0] [22] 0 0
r 2.760000000 _0_ RTR  --- 22 cbr 1000 [0 0 0 0] ------- [0:0 7:0 32 0] [22] 0 0
s 2.760000000 _0_ RTR  --- 22 cbr 1020 [0 0 0 0] ------- [0:0 7:0 30 1] [22] 0 0
r 2.769802000 _1_ RTR  --- 22 cbr 1020 [13a 1 0 800] ------- [0:0 7:0 30 1] [22] 1 0
f 2.769802000 _1_ RTR  --- 22 cbr 1020 [13a 1 0 800] ------- [0:0 7:0 29 2] [22] 1 0
r 2.779568000 _2_ RTR  --- 22 cbr 1020 [13a 2 1 800] ------- [0:0 7:0 29 2] [22] 2 0
f 2.779568000 _2_ RTR  --- 22 cbr 1020 [13a 2 1 800] ------- [0:0 7:0 28 3] [22] 2 0
r 2.789754010 _3_ RTR  --- 22 cbr 1020 [13a 3 2 800] ------- [0:0 7:0 28 3] [22] 3 0
f 2.789754010 _3_ RTR  --- 22 cbr 1020 [13a 3 2 800] ------- [0:0 7:0 27 7] [22] 3 0
r 2.799899010 _7_ AGT  --- 22 cbr 1020 [13a 7 3 800] ------- [0:0 7:0 27 7] [22] 4 0
s 2.840000000 _0_ AGT  --- 23 cbr 1000 [0 0 0 0] ------- [0:0 7:0 32 0] [23] 0 0
r 2.840000000 _0_ RTR  --- 23 cbr 1000 [0 0 0 0] ------- [0:0 7:0 32 0] [23] 0 0
s 2.840000000 _0_ RTR  --- 23 cbr 1020 [0 0 0 0] ------- [0:0 7:0 30 1] [23] 0 0
r 2.849562000 _1_ RTR  --- 23 cbr 1020 [13a 1 0 800] ------- [0:0 7:0 30 1] [23] 1 0
f 2.849562000 _1_ RTR  --- 23 cbr 1020 [13a 1 0 800] ------- [0:0 7:0 29 2] [23] 1 0
r 2.859248000 _2_ RTR  --- 23 cbr 1020 [13a 2 1 800] ------- [0:0 7:0 29 2] [23] 2 0
f 2.859248000 _2_ RTR  --- 23 cbr 1020 [13a 2 1 800] ------- [0:0 7:0 28 3] [23] 2 0
r 2.869134010 _3_ RTR  --- 23 cbr 1020 [13a 3 2 800] ------- [0:0 7:0 28 3] [23] 3 0
f 2.869134010 _3_ RTR  --- 23 cbr 1020 [13a 3 2 800] ------- [0:0 7:0 27 7] [23] 3 0
r 2.879379010 _7_ AGT  --- 23 cbr 1020 [13a 7 3 800] ------- [0:0 7:0 27 7] [23] 4 0
s 2.920000000 _0_ AGT  --- 24 cbr 1000 [0 0 0 0] ------- [0:0 7:0 32 0] [24] 0 0
r 2.920000000 _0_ RTR  --- 24 cbr 1000 [0 0 0 0] ------- [0:0 7:0 32 0] [24] 0 0
s 2.920000000 _0_ RTR  --- 24 cbr 1020 [0 0 0 0] ------- [0:0 7:0 30 1] [24] 0 0
r 2.929622000 _1_ RTR  --- 24 cbr 1020 [13a 1 0 800] ------- [0:0 7:0 30 1] [24] 1 0
f 2.929622000 _1_ RTR  --- 24 cbr 1020 [13a 1 0 800] ------- [0:0 7:0 29 2] [24] 1 0
r 2.939768000 _2_ RTR  --- 24 cbr 1020 [13a 2 1 800] ------- [0:0 7:0 29 2] [24] 2 0
f 2.939768000 _2_ RTR  --- 24 cbr 1020 [13a 2 1 800] ------- [0:0 7:0 28 3] [24] 2 0
r 2.949554010 _3_ RTR  --- 24 cbr 1020 [13a 3 2 800] ------- [0:0 7:0 28 3] [24] 3 0
f 2.949554010 _3_ RTR  --- 24 cbr 1020 [13a 3 2 800] ------- [0:0 7:0 27 7] [24] 3 0
r 2.959699010 _7_ AGT  --- 24 cbr 1020 [13a 7 3 800] ------- [0:0 7:0 27 7] [24] 4 0
s 3.000000000 _0_ AGT  --- 25 cbr 1000 [0 0 0 0] ------- [0:0 7:0 32 0] [25] 0 0
r 3.000000000 _0_ RTR  --- 25 cbr 1000 [0 0 0 0] ------- [0:0 7:0 32 0] [25] 0 0
s 3.000000000 _0_ RTR  --- 25 cbr 1020 [0 0 0 0] ------- [0:0 7:0 30 1] [25] 0 0
r 3.009682000 _1_ RTR  --- 25 cbr 1020 [13a 1 0 800] ------- [0:0 7:0 30 1] [25] 1 0
f 3.009682000 _1_ RTR  --- 25 cbr 1020 [13a 1 0 800] ------- [0:0 7:0 29 2] [25] 1 0
r 3.019948000 _2_ RTR  --- 25 cbr 1020 [13a 2 1 800] ------- [0:0 7:0 29 2] [25] 2 0
f 3.019948000 _2_ RTR  --- 25 cbr 1020 [13a 2 1 800] ------- [0:0 7:0 28 3] [25] 2 0
r 3.030174010 _3_ RTR  --- 25 cbr 1020 [13a 3 2 800] ------- [0:0 7:0 28 3] [25] 3 0
f 3.030174010 _3_ RTR  --- 25 cbr 1020 [13a 3 2 800] ------- [0:0 7:0 27 7] [25] 3 0
r 3.040099010 _7_ AGT  --- 25 cbr 1020 [13a 7 3 800] ------- [0:0 7:0 27 7] [25] 4 0
s 3.080000000 _0_ AGT  --- 26 cbr 1000 [0 0 0 0] ------- [0:0 7:0 32 0] [26] 0 0
r 3.080000000 _0_ RTR  --- 26 cbr 1000 [0 0 0 0] ------- [0:0 7:0 32 0] [26] 0 0
s 3.080000000 _0_ RTR  --- 26 cbr 1020 [0 0 0 0] ------- [0:0 7:0 30 1] [26] 0 0
r 3.089942000 _1_ RTR  --- 26 cbr 1020 [13a 1 0 800] ------- [0:0 7:0 30 1] [26] 1 0
f 3.089942000 _1_ RTR  --- 26 cbr 1020 [13a 1 0 800] ------- [0:0 7:0 29 2] [26] 1 0
r 3.100128000 _2_ RTR  --- 26 cbr 1020 [13a 2 1 800] ------- [0:0 7:0 29 2] [26] 2 0
f 3.100128000 _2_ RTR  --- 26 cbr 1020 [13a 2 1 800] ------- [0:0 7:0 28 3] [26] 2 0
r 3.110234010 _3_ RTR  --- 26 cbr 1020 [13a 3 2 800] ------- [0:0 7:0 28 3] [26] 3 0
f 3.110234010 _3_ RTR  --- 26 cbr 1020 [13a 3 2 800] ------- [0:0 7:0 27 7] [26] 3 0
r 3.119899010 _7_ AGT  --- 26 cbr 1020 [13a 7 3 800] ------- [0:0 7:0 27 7] [26] 4 0
s 3.160000000 _0_ AGT  --- 27 cbr 1000 [0 0 0 0] ------- [0:0 7:0 32 0] [27] 0 0
r 3.160000000 _0_ RTR  --- 27 cbr 1000 [0 0 0 0] ------- [0:0 7:0 32 0] [27] 0 0
s 3.160000000 _0_ RTR  --- 27 cbr 1020 [0 0 0 0] ------- [0:0 7:0 30 1] [27] 0 0
r 3.169402000 _1_ RTR  --- 27 cbr 1020 [13a 1 0 800] ------- [0:0 7:0 30 1] [27] 1 0
f 3.169402000 _1_ RTR  --- 27 cbr 1020 [13a 1 0 800] ------- [0:0 7:0 29 2] [27] 1 0
r 3.179548000 _2_ RTR  --- 27 cbr 1020 [13a 2 1 800] ------- [0:0 7:0 29 2] [27] 2 0
f 3.179548000 _2_ RTR  --- 27 cbr 1020 [13a 2 1 800] ------- [0:0 7:0 28 3] [27] 2 0
r 3.189334010 _3_ RTR  --- 27 cbr 1020 [13a 3 2 800] ------- [0:0 7:0 28 3] [27] 3 0
f 3.189334010 _3_ RTR  --- 27 cbr 1020 [13a 3 2 800] ------- [0:0 7:0 27 7] [27] 3 0
r 3.199139010 _7_ AGT  --- 27 cbr 1020 [13a 7 3 800] ------- [0:0 7:0 27 7] [27] 4 0
s 3.240000000 _0_ AGT  --- 28 cbr 1000 [0 0 0 0] ------- [0:0 7:0 32 0] [28] 0 0
r 3.240000000 _0_ RTR  --- 28 cbr 1000 [0 0 0 0] ------- [0:0 7:0 32 0] [28] 0 0
s 3.240000000 _0_ RTR  --- 28 cbr 1020 [0 0 0 0] ------- [0:0 7:0 30 1] [28] 0 0
r 3.249542000 _1_ RTR  --- 28 cbr 1020 [13a 1 0 800] ------- [0:0 7:0 30 1] [28] 1 0
f 3.249542000 _1_ RTR  --- 28 cbr 1020 [13a 1 0 800] ------- [0:0 7:0 29 2] [28] 1 0
r 3.259488000 _2_ RTR  --- 28 cbr 1020 [13a 2 1 800] ------- [0:0 7:0 29 2] [28] 2 0
f 3.259488000 _2_ RTR  --- 28 cbr 1020 [13a 2 1 800] ------- [0:0 7:0 28 3] [28] 2 0
r 3.269234010 _3_ RTR  --- 28 cbr 1020 [13a 3 2 800] ------- [0:0 7:0 28 3] [28] 3 0
f 3.269234010 _3_ RTR  --- 28 cbr 1020 [13a 3 2 800] ------- [0:0 7:0 27 7] [28] 3 0
r 3.279119010 _7_ AGT  --- 28 cbr 1020 [13a 7 3 800] ------- [0:0 7:0 27 7] [28] 4 0
s 3.320000000 _0_ AGT  --- 29 cbr 1000 [0 0 0 0] ------- [0:0 7:0 32 0] [29] 0 0
r 3.320000000 _0_ RTR  --- 29 cbr 1000 [0 0 0 0] ------- [0:0 7:0 32 0] [29] 0 0
s 3.320000000 _0_ RTR  --- 29 cbr 1020 [0 0 0 0] ------- [0:0 7:0 30 1] [29] 0 0
r 3.329782000 _1_ RTR  --- 29 cbr 1020 [13a 1 0 800] ------- [0:0 7:0 30 1] [29] 1 0
f 3.329782000 _1_ RTR  --- 29 cbr 1020 [13a 1 0 800] ------- [0:0 7:0 29 2] [29] 1 0
r 3.339748000 _2_ RTR  --- 29 cbr 1020 [13a 2 1 800] ------- [0:0 7:0 29 2] [29] 2 0
f 3.339748000 _2_ RTR  --- 29 cbr 1020 [13a 2 1 800] ------- [0:0 7:0 28 3] [29] 2 0
r 3.349794010 _3_ RTR  --- 29 cbr 1020 [13a 3 2 800] ------- [0:0 7:0 28 3] [29] 3 0
f 3.349794010 _3_ RTR  --- 29 cbr 1020 [13a 3 2 800] ------- [0:0 7:0 27 7] [29] 3 0
r 3.359999010 _7_ AGT  --- 29 cbr 1020 [13a 7 3 800] ------- [0:0 7:0 27 7] [29] 4 0
s 3.400000000 _0_ AGT  --- 30 cbr 1000 [0 0 0 0] ------- [0:0 7:0 32 0] [30] 0 0
r 3.400000000 _0_ RTR  --- 30 cbr 1000 [0 0 0 0] ------- [0:0 7:0 32 0] [30] 0 0
s 3.400000000 _0_ RTR  --- 30 cbr 1020 [0 0 0 0] ------- [0:0 7:0 30 1] [30] 0 0
r 3.409742000 _1_ RTR  --- 30 cbr 1020 [13a 1 0 800] ------- [0:0 7:0 30 1] [30] 1 0
f 3.409742000 _1_ RTR  --- 30 cbr 1020 [13a 1 0 800] ------- [0:0 7:0 29 2] [30] 1 0
r 3.419468000 _2_ RTR  --- 30 cbr 1020 [13a 2 1 800] ------- [0:0 7:0 29 2] [30] 2 0
f 3.419468000 _2_ RTR  --- 30 cbr 1020 [13a 2 1 800] ------- [0:0 7:0 28 3] [30] 2 0
r 3.429494010 _3_ RTR  --- 30 cbr 1020 [13a 3 2 800] ------- [0:0 7:0 28 3] [30] 3 0