n -t * -s 0  -x 99 -y 299 -Z 0 -z 20  -v circle -c black
n -t * -s 1  -x 299 -y 297 -Z 0 -z 20  -v circle -c black
n -t * -s 2  -x 499 -y 298 -Z 0 -z 20  -v circle -c black
n -t * -s 3  -x 700 -y 299 -Z 0 -z 20  -v circle -c black
n -t * -s 4  -x 199 -y 350 -Z 0 -z 20  -v circle -c black
n -t * -s 5  -x 599 -y 350 -Z 0 -z 20  -v circle -c black
n -t * -s 6  -x 600 -y 200 -Z 0 -z 20  -v circle -c black
V -t * -v 1.0a5 -a 0
W -t * -x 800 -y 541
A -t * -n 1 -p 0 -o 0x7fffffff -c 30 -a 1
A -t * -h 1 -m 1073741823 -s 0
n -t 0 -s 5 -S COLOR -c red -o red -i red -I red
n -t 0 -s 5 -S DLABEL -l "Attacker" -L ""
n -t 0 -s 0 -S COLOR -c green -o green -i green -I green
n -t 0 -s 0 -S DLABEL -l "Source" -L ""
n -t 0 -s 3 -S COLOR -c blue -o blue -i blue -I blue
n -t 0 -s 3 -S DLABEL -l "Destination" -L ""
+ -t 0.000000000 -s 0 -d -1 -p AODV -e 44 -c 2 -a 0 -i 0 -k RTR 
- -t 0.000000000 -s 0 -d -1 -p AODV -e 44 -c 2 -a 0 -i 0 -k RTR
h -t 0.000000000 -s 0 -d -1 -p AODV -e 44 -c 2 -a 0 -i 0 -k RTR
+ -t 0.000000000 -s 1 -d -1 -p AODV -e 44 -c 2 -a 0 -i 0 -k RTR 
- -t 0.000000000 -s 1 -d -1 -p AODV -e 44 -c 2 -a 0 -i 0 -k RTR
h -t 0.000000000 -s 1 -d -1 -p AODV -e 44 -c 2 -a 0 -i 0 -k RTR
+ -t 0.000000000 -s 2 -d -1 -p AODV -e 44 -c 2 -a 0 -i 0 -k RTR 
- -t 0.000000000 -s 2 -d -1 -p AODV -e 44 -c 2 -a 0 -i 0 -k RTR
h -t 0.000000000 -s 2 -d -1 -p AODV -e 44 -c 2 -a 0 -i 0 -k RTR
+ -t 0.000000000 -s 3 -d -1 -p AODV -e 44 -c 2 -a 0 -i 0 -k RTR 
- -t 0.000000000 -s 3 -d -1 -p AODV -e 44 -c 2 -a 0 -i 0 -k RTR
h -t 0.000000000 -s 3 -d -1 -p AODV -e 44 -c 2 -a 0 -i 0 -k RTR
+ -t 0.000000000 -s 4 -d -1 -p AODV -e 44 -c 2 -a 0 -i 0 -k RTR 
- -t 0.000000000 -s 4 -d -1 -p AODV -e 44 -c 2 -a 0 -i 0 -k RTR
h -t 0.000000000 -s 4 -d -1 -p AODV -e 44 -c 2 -a 0 -i 0 -k RTR
+ -t 0.000000000 -s 5 -d -1 -p AODV -e 44 -c 2 -a 0 -i 0 -k RTR 
- -t 0.000000000 -s 5 -d -1 -p AODV -e 44 -c 2 -a 0 -i 0 -k RTR
h -t 0.000000000 -s 5 -d -1 -p AODV -e 44 -c 2 -a 0 -i 0 -k RTR
+ -t 0.000000000 -s 6 -d -1 -p AODV -e 44 -c 2 -a 0 -i 0 -k RTR 
- -t 0.000000000 -s 6 -d -1 -p AODV -e 44 -c 2 -a 0 -i 0 -k RTR
h -t 0.000000000 -s 6 -d -1 -p AODV -e 44 -c 2 -a 0 -i 0 -k RTR
r -t 0.000956376 -s 2 -d -1 -p AODV -e 44 -c 2 -a 0 -i 0 -k RTR
r -t 0.000956377 -s 3 -d -1 -p AODV -e 44 -c 2 -a 0 -i 0 -k RTR
r -t 0.000956500 -s 6 -d -1 -p AODV -e 44 -c 2 -a 0 -i 0 -k RTR
r -t 0.002042754 -s 5 -d -1 -p AODV -e 44 -c 2 -a 0 -i 0 -k RTR
r -t 0.002042846 -s 6 -d -1 -p AODV -e 44 -c 2 -a 0 -i 0 -k RTR
r -t 0.002043047 -s 2 -d -1 -p AODV -e 44 -c 2 -a 0 -i 0 -k RTR
r -t 0.003679384 -s 5 -d -1 -p AODV -e 44 -c 2 -a 0 -i 0 -k RTR
r -t 0.003679478 -s 6 -d -1 -p AODV -e 44 -c 2 -a 0 -i 0 -k RTR
r -t 0.003679675 -s 1 -d -1 -p AODV -e 44 -c 2 -a 0 -i 0 -k RTR
r -t 0.003679679 -s 3 -d -1 -p AODV -e 44 -c 2 -a 0 -i 0 -k RTR
r -t 0.004646053 -s 4 -d -1 -p AODV -e 44 -c 2 -a 0 -i 0 -k RTR
r -t 0.004646342 -s 2 -d -1 -p AODV -e 44 -c 2 -a 0 -i 0 -k RTR
r -t 0.004646342 -s 0 -d -1 -p AODV -e 44 -c 2 -a 0 -i 0 -k RTR
r -t 0.005612427 -s 0 -d -1 -p AODV -e 44 -c 2 -a 0 -i 0 -k RTR
r -t 0.005612430 -s 1 -d -1 -p AODV -e 44 -c 2 -a 0 -i 0 -k RTR
r -t 0.006923949 -s 3 -d -1 -p AODV -e 44 -c 2 -a 0 -i 0 -k RTR
r -t 0.006923949 -s 2 -d -1 -p AODV -e 44 -c 2 -a 0 -i 0 -k RTR
r -t 0.006923980 -s 5 -d -1 -p AODV -e 44 -c 2 -a 0 -i 0 -k RTR
+ -t 0.750169789 -s 0 -d -1 -p AODV -e 44 -c 2 -a 0 -i 0 -k RTR 
- -t 0.750169789 -s 0 -d -1 -p AODV -e 44 -c 2 -a 0 -i 0 -k RTR
h -t 0.750169789 -s 0 -d -1 -p AODV -e 44 -c 2 -a 0 -i 0 -k RTR
r -t 0.751306163 -s 4 -d -1 -p AODV -e 44 -c 2 -a 0 -i 0 -k RTR
r -t 0.751306455 -s 1 -d -1 -p AODV -e 44 -c 2 -a 0 -i 0 -k RTR
+ -t 0.757102330 -s 2 -d -1 -p AODV -e 44 -c 2 -a 0 -i 0 -k RTR 
- -t 0.757102330 -s 2 -d -1 -p AODV -e 44 -c 2 -a 0 -i 0 -k RTR
h -t 0.757102330 -s 2 -d -1 -p AODV -e 44 -c 2 -a 0 -i 0 -k RTR
r -t 0.758458706 -s 5 -d -1 -p AODV -e 44 -c 2 -a 0 -i 0 -k RTR
r -t 0.758458799 -s 6 -d -1 -p AODV -e 44 -c 2 -a 0 -i 0 -k RTR
r -t 0.758458997 -s 1 -d -1 -p AODV -e 44 -c 2 -a 0 -i 0 -k RTR
r -t 0.758459000 -s 3 -d -1 -p AODV -e 44 -c 2 -a 0 -i 0 -k RTR
+ -t 0.794061336 -s 3 -d -1 -p AODV -e 44 -c 2 -a 0 -i 0 -k RTR 
- -t 0.794061336 -s 3 -d -1 -p AODV -e 44 -c 2 -a 0 -i 0 -k RTR
h -t 0.794061336 -s 3 -d -1 -p AODV -e 44 -c 2 -a 0 -i 0 -k RTR
r -t 0.795377713 -s 5 -d -1 -p AODV -e 44 -c 2 -a 0 -i 0 -k RTR
r -t 0.795377805 -s 6 -d -1 -p AODV -e 44 -c 2 -a 0 -i 0 -k RTR
r -t 0.795378006 -s 2 -d -1 -p AODV -e 44 -c 2 -a 0 -i 0 -k RTR
+ -t 0.906480886 -s 6 -d -1 -p AODV -e 44 -c 2 -a 0 -i 0 -k RTR 
- -t 0.906480886 -s 6 -d -1 -p AODV -e 44 -c 2 -a 0 -i 0 -k RTR
h -t 0.906480886 -s 6 -d -1 -p AODV -e 44 -c 2 -a 0 -i 0 -k RTR
r -t 0.907437355 -s 3 -d -1 -p AODV -e 44 -c 2 -a 0 -i 0 -k RTR
r -t 0.907437355 -s 2 -d -1 -p AODV -e 44 -c 2 -a 0 -i 0 -k RTR
r -t 0.907437386 -s 5 -d -1 -p AODV -e 44 -c 2 -a 0 -i 0 -k RTR
+ -t 0.970586691 -s 4 -d -1 -p AODV -e 44 -c 2 -a 0 -i 0 -k RTR 
- -t 0.970586691 -s 4 -d -1 -p AODV -e 44 -c 2 -a 0 -i 0 -k RTR
h -t 0.970586691 -s 4 -d -1 -p AODV -e 44 -c 2 -a 0 -i 0 -k RTR
r -t 0.971643065 -s 0 -d -1 -p AODV -e 44 -c 2 -a 0 -i 0 -k RTR
r -t 0.971643068 -s 1 -d -1 -p AODV -e 44 -c 2 -a 0 -i 0 -k RTR
+ -t 1.000000000 -s 0 -d -1 -p cbr -e 1000 -c 2 -a 0 -i 0 -k AGT 
- -t 1.000000000 -s 0 -d -1 -p cbr -e 1000 -c 2 -a 0 -i 0 -k AGT
h -t 1.000000000 -s 0 -d -1 -p cbr -e 1000 -c 2 -a 0 -i 0 -k AGT
+ -t 1.000000000 -s 0 -d -1 -p AODV -e 48 -c 2 -a 0 -i 0 -k RTR 
- -t 1.000000000 -s 0 -d -1 -p AODV -e 48 -c 2 -a 0 -i 0 -k RTR
h -t 1.000000000 -s 0 -d -1 -p AODV -e 48 -c 2 -a 0 -i 0 -k RTR
r -t 1.001228374 -s 4 -d -1 -p AODV -e 48 -c 2 -a 0 -i 0 -k RTR
r -t 1.001228667 -s 1 -d -1 -p AODV -e 48 -c 2 -a 0 -i 0 -k RTR
+ -t 1.003102027 -s 4 -d -1 -p AODV -e 48 -c 2 -a 0 -i 0 -k RTR 
- -t 1.003102027 -s 4 -d -1 -p AODV -e 48 -c 2 -a 0 -i 0 -k RTR
h -t 1.003102027 -s 4 -d -1 -p AODV -e 48 -c 2 -a 0 -i 0 -k RTR
r -t 1.004270401 -s 0 -d -1 -p AODV -e 48 -c 2 -a 0 -i 0 -k RTR
r -t 1.004270404 -s 1 -d -1 -p AODV -e 48 -c 2 -a 0 -i 0 -k RTR
+ -t 1.010103102 -s 1 -d -1 -p AODV -e 48 -c 2 -a 0 -i 0 -k RTR 
- -t 1.010103102 -s 1 -d -1 -p AODV -e 48 -c 2 -a 0 -i 0 -k RTR
h -t 1.010103102 -s 1 -d -1 -p AODV -e 48 -c 2 -a 0 -i 0 -k RTR
r -t 1.011631479 -s 4 -d -1 -p AODV -e 48 -c 2 -a 0 -i 0 -k RTR
r -t 1.011631769 -s 2 -d -1 -p AODV -e 48 -c 2 -a 0 -i 0 -k RTR
r -t 1.011631769 -s 0 -d -1 -p AODV -e 48 -c 2 -a 0 -i 0 -k RTR
+ -t 1.011739852 -s 2 -d -1 -p AODV -e 48 -c 2 -a 0 -i 0 -k RTR 
- -t 1.011739852 -s 2 -d -1 -p AODV -e 48 -c 2 -a 0 -i 0 -k RTR
h -t 1.011739852 -s 2 -d -1 -p AODV -e 48 -c 2 -a 0 -i 0 -k RTR
r -t 1.013028228 -s 5 -d -1 -p AODV -e 48 -c 2 -a 0 -i 0 -k RTR
r -t 1.013028321 -s 6 -d -1 -p AODV -e 48 -c 2 -a 0 -i 0 -k RTR
r -t 1.013028519 -s 1 -d -1 -p AODV -e 48 -c 2 -a 0 -i 0 -k RTR
r -t 1.013028522 -s 3 -d -1 -p AODV -e 48 -c 2 -a 0 -i 0 -k RTR
+ -t 1.013028522 -s 3 -d 2 -p AODV -e 44 -c 2 -a 0 -i 0 -k RTR 
- -t 1.013028522 -s 3 -d 2 -p AODV -e 44 -c 2 -a 0 -i 0 -k RTR
h -t 1.013028522 -s 3 -d 2 -p AODV -e 44 -c 2 -a 0 -i 0 -k RTR
+ -t 1.014259263 -s 5 -d -1 -p AODV -e 48 -c 2 -a 0 -i 0 -k RTR 
- -t 1.014259263 -s 5 -d -1 -p AODV -e 48 -c 2 -a 0 -i 0 -k RTR
h -t 1.014259263 -s 5 -d -1 -p AODV -e 48 -c 2 -a 0 -i 0 -k RTR
+ -t 1.017551212 -s 2 -d 1 -p AODV -e 44 -c 2 -a 0 -i 0 -k RTR 
- -t 1.017551212 -s 2 -d 1 -p AODV -e 44 -c 2 -a 0 -i 0 -k RTR
h -t 1.017551212 -s 2 -d 1 -p AODV -e 44 -c 2 -a 0 -i 0 -k RTR
+ -t 1.022402879 -s 1 -d 0 -p AODV -e 44 -c 2 -a 0 -i 0 -k RTR 
- -t 1.022402879 -s 1 -d 0 -p AODV -e 44 -c 2 -a 0 -i 0 -k RTR
h -t 1.022402879 -s 1 -d 0 -p AODV -e 44 -c 2 -a 0 -i 0 -k RTR
+ -t 1.027554546 -s 0 -d 1 -p cbr -e 1020 -c 2 -a 0 -i 0 -k RTR 
- -t 1.027554546 -s 0 -d 1 -p cbr -e 1020 -c 2 -a 0 -i 0 -k RTR
h -t 1.027554546 -s 0 -d 1 -p cbr -e 1020 -c 2 -a 0 -i 0 -k RTR
+ -t 1.027940358 -s 1 -d -1 -p AODV -e 44 -c 2 -a 0 -i 0 -k RTR 
- -t 1.027940358 -s 1 -d -1 -p AODV -e 44 -c 2 -a 0 -i 0 -k RTR
h -t 1.027940358 -s 1 -d -1 -p AODV -e 44 -c 2 -a 0 -i 0 -k RTR
r -t 1.028975590 -s 4 -d -1 -p AODV -e 44 -c 2 -a 0 -i 0 -k RTR
r -t 1.028975879 -s 2 -d -1 -p AODV -e 44 -c 2 -a 0 -i 0 -k RTR
r -t 1.028975879 -s 0 -d -1 -p AODV -e 44 -c 2 -a 0 -i 0 -k RTR
+ -t 1.038567879 -s 1 -d 2 -p cbr -e 1020 -c 2 -a 0 -i 0 -k RTR 
- -t 1.038567879 -s 1 -d 2 -p cbr -e 1020 -c 2 -a 0 -i 0 -k RTR
h -t 1.038567879 -s 1 -d 2 -p cbr -e 1020 -c 2 -a 0 -i 0 -k RTR
+ -t 1.048293879 -s 2 -d 3 -p cbr -e 1020 -c 2 -a 0 -i 0 -k RTR 
- -t 1.048293879 -s 2 -d 3 -p cbr -e 1020 -c 2 -a 0 -i 0 -k RTR
h -t 1.048293879 -s 2 -d 3 -p cbr -e 1020 -c 2 -a 0 -i 0 -k RTR
r -t 1.049596604 -s 2 -d -1 -p AODV -e 48 -c 2 -a 0 -i 0 -k RTR
r -t 1.049596605 -s 3 -d -1 -p AODV -e 48 -c 2 -a 0 -i 0 -k RTR
r -t 1.049596728 -s 6 -d -1 -p AODV -e 48 -c 2 -a 0 -i 0 -k RTR
r -t 1.059328614 -s 3 -d 3 -p cbr -e 1020 -c 2 -a 0 -i 0 -k AGT
+ -t 1.080000000 -s 0 -d -1 -p cbr -e 1000 -c 2 -a 0 -i 1 -k AGT 
- -t 1.080000000 -s 0 -d -1 -p cbr -e 1000 -c 2 -a 0 -i 1 -k AGT
h -t 1.080000000 -s 0 -d -1 -p cbr -e 1000 -c 2 -a 0 -i 1 -k AGT
+ -t 1.080000000 -s 0 -d 1 -p cbr -e 1020 -c 2 -a 0 -i 1 -k RTR 
- -t 1.080000000 -s 0 -d 1 -p cbr -e 1020 -c 2 -a 0 -i 1 -k RTR
h -t 1.080000000 -s 0 -d 1 -p cbr -e 1020 -c 2 -a 0 -i 1 -k RTR
+ -t 1.089482000 -s 1 -d 2 -p cbr -e 1020 -c 2 -a 0 -i 1 -k RTR 
- -t 1.089482000 -s 1 -d 2 -p cbr -e 1020 -c 2 -a 0 -i 1 -k RTR
h -t 1.089482000 -s 1 -d 2 -p cbr -e 1020 -c 2 -a 0 -i 1 -k RTR
+ -t 1.099408000 -s 2 -d 3 -p cbr -e 1020 -c 2 -a 0 -i 1 -k RTR 
- -t 1.099408000 -s 2 -d 3 -p cbr -e 1020 -c 2 -a 0 -i 1 -k RTR
h -t 1.099408000 -s 2 -d 3 -p cbr -e 1020 -c 2 -a 0 -i 1 -k RTR
r -t 1.109134010 -s 3 -d 3 -p cbr -e 1020 -c 2 -a 0 -i 1 -k AGT
+ -t 1.149577727 -s 5 -d -1 -p AODV -e 44 -c 2 -a 0 -i 0 -k RTR 
- -t 1.149577727 -s 5 -d -1 -p AODV -e 44 -c 2 -a 0 -i 0 -k RTR
h -t 1.149577727 -s 5 -d -1 -p AODV -e 44 -c 2 -a 0 -i 0 -k RTR
r -t 1.150554102 -s 2 -d -1 -p AODV -e 44 -c 2 -a 0 -i 0 -k RTR
r -t 1.150554104 -s 3 -d -1 -p AODV -e 44 -c 2 -a 0 -i 0 -k RTR
r -t 1.150554227 -s 6 -d -1 -p AODV -e 44 -c 2 -a 0 -i 0 -k RTR
+ -t 1.160000000 -s 0 -d -1 -p cbr -e 1000 -c 2 -a 0 -i 2 -k AGT 
- -t 1.160000000 -s 0 -d -1 -p cbr -e 1000 -c 2 -a 0 -i 2 -k AGT
h -t 1.160000000 -s 0 -d -1 -p cbr -e 1000 -c 2 -a 0 -i 2 -k AGT
+ -t 1.160000000 -s 0 -d 1 -p cbr -e 1020 -c 2 -a 0 -i 2 -k RTR 
- -t 1.160000000 -s 0 -d 1 -p cbr -e 1020 -c 2 -a 0 -i 2 -k RTR
h -t 1.160000000 -s 0 -d 1 -p cbr -e 1020 -c 2 -a 0 -i 2 -k RTR
+ -t 1.169522000 -s 1 -d 2 -p cbr -e 1020 -c 2 -a 0 -i 2 -k RTR 
- -t 1.169522000 -s 1 -d 2 -p cbr -e 1020 -c 2 -a 0 -i 2 -k RTR
h -t 1.169522000 -s 1 -d 2 -p cbr -e 1020 -c 2 -a 0 -i 2 -k RTR
+ -t 1.179788000 -s 2 -d 3 -p cbr -e 1020 -c 2 -a 0 -i 2 -k RTR 
- -t 1.179788000 -s 2 -d 3 -p cbr -e 1020 -c 2 -a 0 -i 2 -k RTR
h -t 1.179788000 -s 2 -d 3 -p cbr -e 1020 -c 2 -a 0 -i 2 -k RTR
r -t 1.189994010 -s 3 -d 3 -p cbr -e 1020 -c 2 -a 0 -i 2 -k AGT
+ -t 1.240000000 -s 0 -d -1 -p cbr -e 1000 -c 2 -a 0 -i 3 -k AGT 
- -t 1.240000000 -s 0 -d -1 -p cbr -e 1000 -c 2 -a 0 -i 3 -k AGT
h -t 1.240000000 -s 0 -d -1 -p cbr -e 1000 -c 2 -a 0 -i 3 -k AGT
+ -t 1.240000000 -s 0 -d 1 -p cbr -e 1020 -c 2 -a 0 -i 3 -k RTR 
- -t 1.240000000 -s 0 -d 1 -p cbr -e 1020 -c 2 -a 0 -i 3 -k RTR
h -t 1.240000000 -s 0 -d 1 -p cbr -e 1020 -c 2 -a 0 -i 3 -k RTR
+ -t 1.249702000 -s 1 -d 2 -p cbr -e 1020 -c 2 -a 0 -i 3 -k RTR 
- -t 1.249702000 -s 1 -d 2 -p cbr -e 1020 -c 2 -a 0 -i 3 -k RTR
h -t 1.249702000 -s 1 -d 2 -p cbr -e 1020 -c 2 -a 0 -i 3 -k RTR
+ -t 1.259708000 -s 2 -d 3 -p cbr -e 1020 -c 2 -a 0 -i 3 -k RTR 
- -t 1.259708000 -s 2 -d 3 -p cbr -e 1020 -c 2 -a 0 -i 3 -k RTR
h -t 1.259708000 -s 2 -d 3 -p cbr -e 1020 -c 2 -a 0 -i 3 -k RTR
r -t 1.269954010 -s 3 -d 3 -p cbr -e 1020 -c 2 -a 0 -i 3 -k AGT
+ -t 1.320000000 -s 0 -d -1 -p cbr -e 1000 -c 2 -a 0 -i 4 -k AGT 
- -t 1.320000000 -s 0 -d -1 -p cbr -e 1000 -c 2 -a 0 -i 4 -k AGT
h -t 1.320000000 -s 0 -d -1 -p cbr -e 1000 -c 2 -a 0 -i 4 -k AGT
+ -t 1.320000000 -s 0 -d 1 -p cbr -e 1020 -c 2 -a 0 -i 4 -k RTR 
- -t 1.320000000 -s 0 -d 1 -p cbr -e 1020 -c 2 -a 0 -i 4 -k RTR
h -t 1.320000000 -s 0 -d 1 -p cbr -e 1020 -c 2 -a 0 -i 4 -k RTR
+ -t 1.329562000 -s 1 -d 2 -p cbr -e 1020 -c 2 -a 0 -i 4 -k RTR 
- -t 1.329562000 -s 1 -d 2 -p cbr -e 1020 -c 2 -a 0 -i 4 -k RTR
h -t 1.329562000 -s 1 -d 2 -p cbr -e 1020 -c 2 -a 0 -i 4 -k RTR
+ -t 1.339668000 -s 2 -d 3 -p cbr -e 1020 -c 2 -a 0 -i 4 -k RTR 
- -t 1.339668000 -s 2 -d 3 -p cbr -e 1020 -c 2 -a 0 -i 4 -k RTR
h -t 1.339668000 -s 2 -d 3 -p cbr -e 1020 -c 2 -a 0 -i 4 -k RTR
r -t 1.349454010 -s 3 -d 3 -p cbr -e 1020 -c 2 -a 0 -i 4 -k AGT
+ -t 1.400000000 -s 0 -d -1 -p cbr -e 1000 -c 2 -a 0 -i 5 -k AGT 
- -t 1.400000000 -s 0 -d -1 -p cbr -e 1000 -c 2 -a 0 -i 5 -k AGT
h -t 1.400000000 -s 0 -d -1 -p cbr -e 1000 -c 2 -a 0 -i 5 -k AGT
+ -t 1.400000000 -s 0 -d 1 -p cbr -e 1020 -c 2 -a 0 -i 5 -k RTR 
- -t 1.400000000 -s 0 -d 1 -p cbr -e 1020 -c 2 -a 0 -i 5 -k RTR
h -t 1.400000000 -s 0 -d 1 -p cbr -e 1020 -c 2 -a 0 -i 5 -k RTR
+ -t 1.409402000 -s 1 -d 2 -p cbr -e 1020 -c 2 -a 0 -i 5 -k RTR 
- -t 1.409402000 -s 1 -d 2 -p cbr -e 1020 -c 2 -a 0 -i 5 -k RTR
h -t 1.409402000 -s 1 -d 2 -p cbr -e 1020 -c 2 -a 0 -i 5 -k RTR
+ -t 1.419208000 -s 2 -d 3 -p cbr -e 1020 -c 2 -a 0 -i 5 -k RTR 
- -t 1.419208000 -s 2 -d 3 -p cbr -e 1020 -c 2 -a 0 -i 5 -k RTR
h -t 1.419208000 -s 2 -d 3 -p cbr -e 1020 -c 2 -a 0 -i 5 -k RTR
r -t 1.429194010 -s 3 -d 3 -p cbr -e 1020 -c 2 -a 0 -i 5 -k AGT
+ -t 1.480000000 -s 0 -d -1 -p cbr -e 1000 -c 2 -a 0 -i 6 -k AGT 
- -t 1.480000000 -s 0 -d -1 -p cbr -e 1000 -c 2 -a 0 -i 6 -k AGT
h -t 1.480000000 -s 0 -d -1 -p cbr -e 1000 -c 2 -a 0 -i 6 -k AGT
+ -t 1.480000000 -s 0 -d 1 -p cbr -e 1020 -c 2 -a 0 -i 6 -k RTR 
- -t 1.480000000 -s 0 -d 1 -p cbr -e 1020 -c 2 -a 0 -i 6 -k RTR
h -t 1.480000000 -s 0 -d 1 -p cbr -e 1020 -c 2 -a 0 -i 6 -k RTR
+ -t 1.489722000 -s 1 -d 2 -p cbr -e 1020 -c 2 -a 0 -i 6 -k RTR 
- -t 1.489722000 -s 1 -d 2 -p cbr -e 1020 -c 2 -a 0 -i 6 -k RTR
h -t 1.489722000 -s 1 -d 2 -p cbr -e 1020 -c 2 -a 0 -i 6 -k RTR
+ -t 1.499548000 -s 2 -d 3 -p cbr -e 1020 -c 2 -a 0 -i 6 -k RTR 
- -t 1.499548000 -s 2 -d 3 -p cbr -e 1020 -c 2 -a 0 -i 6 -k RTR
h -t 1.499548000 -s 2 -d 3 -p cbr -e 1020 -c 2 -a 0 -i 6 -k RTR
r -t 1.509474010 -s 3 -d 3 -p cbr -e 1020 -c 2 -a 0 -i 6 -k AGT
+ -t 1.560000000 -s 0 -d -1 -p cbr -e 1000 -c 2 -a 0 -i 7 -k AGT 
- -t 1.560000000 -s 0 -d -1 -p cbr -e 1000 -c 2 -a 0 -i 7 -k AGT
h -t 1.560000000 -s 0 -d -1 -p cbr -e 1000 -c 2 -a 0 -i 7 -k AGT
+ -t 1.560000000 -s 0 -d 1 -p cbr -e 1020 -c 2 -a 0 -i 7 -k RTR 
- -t 1.560000000 -s 0 -d 1 -p cbr -e 1020 -c 2 -a 0 -i 7 -k RTR
h -t 1.560000000 -s 0 -d 1 -p cbr -e 1020 -c 2 -a 0 -i 7 -k RTR
+ -t 1.569462000 -s 1 -d 2 -p cbr -e 1020 -c 2 -a 0 -i 7 -k RTR 
- -t 1.569462000 -s 1 -d 2 -p cbr -e 1020 -c 2 -a 0 -i 7 -k RTR
h -t 1.569462000 -s 1 -d 2 -p cbr -e 1020 -c 2 -a 0 -i 7 -k RTR
+ -t 1.579648000 -s 2 -d 3 -p cbr -e 1020 -c 2 -a 0 -i 7 -k RTR 
- -t 1.579648000 -s 2 -d 3 -p cbr -e 1020 -c 2 -a 0 -i 7 -k RTR
h -t 1.579648000 -s 2 -d 3 -p cbr -e 1020 -c 2 -a 0 -i 7 -k RTR
r -t 1.589734010 -s 3 -d 3 -p cbr -e 1020 -c 2 -a 0 -i 7 -k AGT
+ -t 1.640000000 -s 0 -d -1 -p cbr -e 1000 -c 2 -a 0 -i 8 -k AGT 
- -t 1.640000000 -s 0 -d -1 -p cbr -e 1000 -c 2 -a 0 -i 8 -k AGT
h -t 1.640000000 -s 0 -d -1 -p cbr -e 1000 -c 2 -a 0 -i 8 -k AGT
+ -t 1.640000000 -s 0 -d 1 -p cbr -e 1020 -c 2 -a 0 -i 8 -k RTR 
- -t 1.640000000 -s 0 -d 1 -p cbr -e 1020 -c 2 -a 0 -i 8 -k RTR
h -t 1.640000000 -s 0 -d 1 -p cbr -e 1020 -c 2 -a 0 -i 8 -k RTR
+ -t 1.649462000 -s 1 -d 2 -p cbr -e 1020 -c 2 -a 0 -i 8 -k RTR 
- -t 1.649462000 -s 1 -d 2 -p cbr -e 1020 -c 2 -a 0 -i 8 -k RTR
h -t 1.649462000 -s 1 -d 2 -p cbr -e 1020 -c 2 -a 0 -i 8 -k RTR
+ -t 1.659388000 -s 2 -d 3 -p cbr -e 1020 -c 2 -a 0 -i 8 -k RTR 
- -t 1.659388000 -s 2 -d 3 -p cbr -e 1020 -c 2 -a 0 -i 8 -k RTR
h -t 1.659388000 -s 2 -d 3 -p cbr -e 1020 -c 2 -a 0 -i 8 -k RTR
r -t 1.669074010 -s 3 -d 3 -p cbr -e 1020 -c 2 -a 0 -i 8 -k AGT
+ -t 1.674540301 -s 0 -d -1 -p AODV -e 44 -c 2 -a 0 -i 0 -k RTR 
- -t 1.674540301 -s 0 -d -1 -p AODV -e 44 -c 2 -a 0 -i 0 -k RTR
h -t 1.674540301 -s 0 -d -1 -p AODV -e 44 -c 2 -a 0 -i 0 -k RTR
r -t 1.675936676 -s 4 -d -1 -p AODV -e 44 -c 2 -a 0 -i 0 -k RTR
r -t 1.675936968 -s 1 -d -1 -p AODV -e 44 -c 2 -a 0 -i 0 -k RTR
+ -t 1.720000000 -s 0 -d -1 -p cbr -e 1000 -c 2 -a 0 -i 9 -k AGT 
- -t 1.720000000 -s 0 -d -1 -p cbr -e 1000 -c 2 -a 0 -i 9 -k AGT
h -t 1.720000000 -s 0 -d -1 -p cbr -e 1000 -c 2 -a 0 -i 9 -k AGT
+ -t 1.720000000 -s 0 -d 1 -p cbr -e 1020 -c 2 -a 0 -i 9 -k RTR 
- -t 1.720000000 -s 0 -d 1 -p cbr -e 1020 -c 2 -a 0 -i 9 -k RTR
h -t 1.720000000 -s 0 -d 1 -p cbr -e 1020 -c 2 -a 0 -i 9 -k RTR
+ -t 1.729582000 -s 1 -d 2 -p cbr -e 1020 -c 2 -a 0 -i 9 -k RTR 
- -t 1.729582000 -s 1 -d 2 -p cbr -e 1020 -c 2 -a 0 -i 9 -k RTR
h -t 1.729582000 -s 1 -d 2 -p cbr -e 1020 -c 2 -a 0 -i 9 -k RTR
+ -t 1.739788000 -s 2 -d 3 -p cbr -e 1020 -c 2 -a 0 -i 9 -k RTR 
- -t 1.739788000 -s 2 -d 3 -p cbr -e 1020 -c 2 -a 0 -i 9 -k RTR
h -t 1.739788000 -s 2 -d 3 -p cbr -e 1020 -c 2 -a 0 -i 9 -k RTR
r -t 1.749594010 -s 3 -d 3 -p cbr -e 1020 -c 2 -a 0 -i 9 -k AGT
+ -t 1.766426728 -s 2 -d -1 -p AODV -e 44 -c 2 -a 0 -i 0 -k RTR 
- -t 1.766426728 -s 2 -d -1 -p AODV -e 44 -c 2 -a 0 -i 0 -k RTR
h -t 1.766426728 -s 2 -d -1 -p AODV -e 44 -c 2 -a 0 -i 0 -k RTR
r -t 1.767343103 -s 5 -d -1 -p AODV -e 44 -c 2 -a 0 -i 0 -k RTR
r -t 1.767343197 -s 6 -d -1 -p AODV -e 44 -c 2 -a 0 -i 0 -k RTR
r -t 1.767343394 -s 1 -d -1 -p AODV -e 44 -c 2 -a 0 -i 0 -k RTR
r -t 1.767343398 -s 3 -d -1 -p AODV -e 44 -c 2 -a 0 -i 0 -k RTR
+ -t 1.777093700 -s 6 -d -1 -p AODV -e 44 -c 2 -a 0 -i 0 -k RTR 
- -t 1.777093700 -s 6 -d -1 -p AODV -e 44 -c 2 -a 0 -i 0 -k RTR
h -t 1.777093700 -s 6 -d -1 -p AODV -e 44 -c 2 -a 0 -i 0 -k RTR
r -t 1.778590169 -s 3 -d -1 -p AODV -e 44 -c 2 -a 0 -i 0 -k RTR
r -t 1.778590169 -s 2 -d -1 -p AODV -e 44 -c 2 -a 0 -i 0 -k RTR
r -t 1.778590200 -s 5 -d -1 -p AODV -e 44 -c 2 -a 0 -i 0 -k RTR
+ -t 1.800000000 -s 0 -d -1 -p cbr -e 1000 -c 2 -a 0 -i 10 -k AGT 
- -t 1.800000000 -s 0 -d -1 -p cbr -e 1000 -c 2 -a 0 -i 10 -k AGT
h -t 1.800000000 -s 0 -d -1 -p cbr -e 1000 -c 2 -a 0 -i 10 -k AGT
+ -t 1.800000000 -s 0 -d 1 -p cbr -e 1020 -c 2 -a 0 -i 10 -k RTR 
- -t 1.800000000 -s 0 -d 1 -p cbr -e 1020 -c 2 -a 0 -i 10 -k RTR
h -t 1.800000000 -s 0 -d 1 -p cbr -e 1020 -c 2 -a 0 -i 10 -k RTR
+ -t 1.809622000 -s 1 -d 2 -p cbr -e 1020 -c 2 -a 0 -i 10 -k RTR 
- -t 1.809622000 -s 1 -d 2 -p cbr -e 1020 -c 2 -a 0 -i 10 -k RTR
h -t 1.809622000 -s 1 -d 2 -p cbr -e 1020 -c 2 -a 0 -i 10 -k RTR
+ -t 1.819808000 -s 2 -d 3 -p cbr -e 1020 -c 2 -a 0 -i 10 -k RTR 
- -t 1.819808000 -s 2 -d 3 -p cbr -e 1020 -c 2 -a 0 -i 10 -k RTR
h -t 1.819808000 -s 2 -d 3 -p cbr -e 1020 -c 2 -a 0 -i 10 -k RTR
r -t 1.829714010 -s 3 -d 3 -p cbr -e 1020 -c 2 -a 0 -i 10 -k AGT
+ -t 1.880000000 -s 0 -d -1 -p cbr -e 1000 -c 2 -a 0 -i 11 -k AGT 
- -t 1.880000000 -s 0 -d -1 -p cbr -e 1000 -c 2 -a 0 -i 11 -k AGT
h -t 1.880000000 -s 0 -d -1 -p cbr -e 1000 -c 2 -a 0 -i 11 -k AGT
+ -t 1.880000000 -s 0 -d 1 -p cbr -e 1020 -c 2 -a 0 -i 11 -k RTR 
- -t 1.880000000 -s 0 -d 1 -p cbr -e 1020 -c 2 -a 0 -i 11 -k RTR
h -t 1.880000000 -s 0 -d 1 -p cbr -e 1020 -c 2 -a 0 -i 11 -k RTR
+ -t 1.889582000 -s 1 -d 2 -p cbr -e 1020 -c 2 -a 0 -i 11 -k RTR 
- -t 1.889582000 -s 1 -d 2 -p cbr -e 1020 -c 2 -a 0 -i 11 -k RTR
h -t 1.889582000 -s 1 -d 2 -p cbr -e 1020 -c 2 -a 0 -i 11 -k RTR
+ -t 1.899248000 -s 2 -d 3 -p cbr -e 1020 -c 2 -a 0 -i 11 -k RTR 
- -t 1.899248000 -s 2 -d 3 -p cbr -e 1020 -c 2 -a 0 -i 11 -k RTR
h -t 1.899248000 -s 2 -d 3 -p cbr -e 1020 -c 2 -a 0 -i 11 -k RTR
r -t 1.909414010 -s 3 -d 3 -p cbr -e 1020 -c 2 -a 0 -i 11 -k AGT
+ -t 1.960000000 -s 0 -d -1 -p cbr -e 1000 -c 2 -a 0 -i 12 -k AGT 
- -t 1.960000000 -s 0 -d -1 -p cbr -e 1000 -c 2 -a 0 -i 12 -k AGT
h -t 1.960000000 -s 0 -d -1 -p cbr -e 1000 -c 2 -a 0 -i 12 -k AGT
+ -t 1.960000000 -s 0 -d 1 -p cbr -e 1020 -c 2 -a 0 -i 12 -k RTR 
- -t 1.960000000 -s 0 -d 1 -p cbr -e 1020 -c 2 -a 0 -i 12 -k RTR
h -t 1.960000000 -s 0 -d 1 -p cbr -e 1020 -c 2 -a 0 -i 12 -k RTR
+ -t 1.969522000 -s 1 -d 2 -p cbr -e 1020 -c 2 -a 0 -i 12 -k RTR 
- -t 1.969522000 -s 1 -d 2 -p cbr -e 1020 -c 2 -a 0 -i 12 -k RTR
h -t 1.969522000 -s 1 -d 2 -p cbr -e 1020 -c 2 -a 0 -i 12 -k RTR
+ -t 1.975094976 -s 3 -d -1 -p AODV -e 44 -c 2 -a 0 -i 0 -k RTR 
- -t 1.975094976 -s 3 -d -1 -p AODV -e 44 -c 2 -a 0 -i 0 -k RTR
h -t 1.975094976 -s 3 -d -1 -p AODV -e 44 -c 2 -a 0 -i 0 -k RTR
+ -t 1.979548000 -s 2 -d 3 -p cbr -e 1020 -c 2 -a 0 -i 12 -k RTR 
- -t 1.979548000 -s 2 -d 3 -p cbr -e 1020 -c 2 -a 0 -i 12 -k RTR
h -t 1.979548000 -s 2 -d 3 -p cbr -e 1020 -c 2 -a 0 -i 12 -k RTR
r -t 1.989354010 -s 3 -d 3 -p cbr -e 1020 -c 2 -a 0 -i 12 -k AGT
r -t 1.991054387 -s 5 -d -1 -p AODV -e 44 -c 2 -a 0 -i 0 -k RTR
r -t 1.991054479 -s 6 -d -1 -p AODV -e 44 -c 2 -a 0 -i 0 -k RTR
r -t 1.991054680 -s 2 -d -1 -p AODV -e 44 -c 2 -a 0 -i 0 -k RTR
+ -t 2.040000000 -s 0 -d -1 -p cbr -e 1000 -c 2 -a 0 -i 13 -k AGT 
- -t 2.040000000 -s 0 -d -1 -p cbr -e 1000 -c 2 -a 0 -i 13 -k AGT
h -t 2.040000000 -s 0 -d -1 -p cbr -e 1000 -c 2 -a 0 -i 13 -k AGT
+ -t 2.040000000 -s 0 -d 1 -p cbr -e 1020 -c 2 -a 0 -i 13 -k RTR 
- -t 2.040000000 -s 0 -d 1 -p cbr -e 1020 -c 2 -a 0 -i 13 -k RTR
h -t 2.040000000 -s 0 -d 1 -p cbr -e 1020 -c 2 -a 0 -i 13 -k RTR
+ -t 2.049882000 -s 1 -d 2 -p cbr -e 1020 -c 2 -a 0 -i 13 -k RTR 
- -t 2.049882000 -s 1 -d 2 -p cbr -e 1020 -c 2 -a 0 -i 13 -k RTR
h -t 2.049882000 -s 1 -d 2 -p cbr -e 1020 -c 2 -a 0 -i 13 -k RTR
+ -t 2.059908000 -s 2 -d 3 -p cbr -e 1020 -c 2 -a 0 -i 13 -k RTR 
- -t 2.059908000 -s 2 -d 3 -p cbr -e 1020 -c 2 -a 0 -i 13 -k RTR
h -t 2.059908000 -s 2 -d 3 -p cbr -e 1020 -c 2 -a 0 -i 13 -k RTR
r -t 2.069654010 -s 3 -d 3 -p cbr -e 1020 -c 2 -a 0 -i 13 -k AGT
+ -t 2.101702637 -s 4 -d -1 -p AODV -e 44 -c 2 -a 0 -i 0 -k RTR 
- -t 2.101702637 -s 4 -d -1 -p AODV -e 44 -c 2 -a 0 -i 0 -k RTR
h -t 2.101702637 -s 4 -d -1 -p AODV -e 44 -c 2 -a 0 -i 0 -k RTR
r -t 2.102939012 -s 0 -d -1 -p AODV -e 44 -c 2 -a 0 -i 0 -k RTR
r -t 2.102939015 -s 1 -d -1 -p AODV -e 44 -c 2 -a 0 -i 0 -k RTR
+ -t 2.120000000 -s 0 -d -1 -p cbr -e 1000 -c 2 -a 0 -i 14 -k AGT 
- -t 2.120000000 -s 0 -d -1 -p cbr -e 1000 -c 2 -a 0 -i 14 -k AGT
h -t 2.120000000 -s 0 -d -1 -p cbr -e 1000 -c 2 -a 0 -i 14 -k AGT
+ -t 2.120000000 -s 0 -d 1 -p cbr -e 1020 -c 2 -a 0 -i 14 -k RTR 
- -t 2.120000000 -s 0 -d 1 -p cbr -e 1020 -c 2 -a 0 -i 14 -k RTR
h -t 2.120000000 -s 0 -d 1 -p cbr -e 1020 -c 2 -a 0 -i 14 -k RTR
+ -t 2.129442000 -s 1 -d 2 -p cbr -e 1020 -c 2 -a 0 -i 14 -k RTR 
- -t 2.129442000 -s 1 -d 2 -p cbr -e 1020 -c 2 -a 0 -i 14 -k RTR
h -t 2.129442000 -s 1 -d 2 -p cbr -e 1020 -c 2 -a 0 -i 14 -k RTR
+ -t 2.139628000 -s 2 -d 3 -p cbr -e 1020 -c 2 -a 0 -i 14 -k RTR 
- -t 2.139628000 -s 2 -d 3 -p cbr -e 1020 -c 2 -a 0 -i 14 -k RTR
h -t 2.139628000 -s 2 -d 3 -p cbr -e 1020 -c 2 -a 0 -i 14 -k RTR
r -t 2.149374010 -s 3 -d 3 -p cbr -e 1020 -c 2 -a 0 -i 14 -k AGT
+ -t 2.192633967 -s 5 -d -1 -p AODV -e 44 -c 2 -a 0 -i 0 -k RTR 
- -t 2.192633967 -s 5 -d -1 -p AODV -e 44 -c 2 -a 0 -i 0 -k RTR
h -t 2.192633967 -s 5 -d -1 -p AODV -e 44 -c 2 -a 0 -i 0 -k RTR
r -t 2.193870343 -s 2 -d -1 -p AODV -e 44 -c 2 -a 0 -i 0 -k RTR
r -t 2.193870344 -s 3 -d -1 -p AODV -e 44 -c 2 -a 0 -i 0 -k RTR
r -t 2.193870467 -s 6 -d -1 -p AODV -e 44 -c 2 -a 0 -i 0 -k RTR
+ -t 2.200000000 -s 0 -d -1 -p cbr -e 1000 -c 2 -a 0 -i 15 -k AGT 
- -t 2.200000000 -s 0 -d -1 -p cbr -e 1000 -c 2 -a 0 -i 15 -k AGT
h -t 2.200000000 -s 0 -d -1 -p cbr -e 1000 -c 2 -a 0 -i 15 -k AGT
+ -t 2.200000000 -s 0 -d 1 -p cbr -e 1020 -c 2 -a 0 -i 15 -k RTR 
- -t 2.200000000 -s 0 -d 1 -p cbr -e 1020 -c 2 -a 0 -i 15 -k RTR
h -t 2.200000000 -s 0 -d 1 -p cbr -e 1020 -c 2 -a 0 -i 15 -k RTR
+ -t 2.209462000 -s 1 -d 2 -p cbr -e 1020 -c 2 -a 0 -i 15 -k RTR 
- -t 2.209462000 -s 1 -d 2 -p cbr -e 1020 -c 2 -a 0 -i 15 -k RTR
h -t 2.209462000 -s 1 -d 2 -p cbr -e 1020 -c 2 -a 0 -i 15 -k RTR
+ -t 2.219428000 -s 2 -d 3 -p cbr -e 1020 -c 2 -a 0 -i 15 -k RTR 
- -t 2.219428000 -s 2 -d 3 -p cbr -e 1020 -c 2 -a 0 -i 15 -k RTR
h -t 2.219428000 -s 2 -d 3 -p cbr -e 1020 -c 2 -a 0 -i 15 -k RTR
r -t 2.229214010 -s 3 -d 3 -p cbr -e 1020 -c 2 -a 0 -i 15 -k AGT
+ -t 2.265943708 -s 1 -d -1 -p AODV -e 44 -c 2 -a 0 -i 0 -k RTR 
- -t 2.265943708 -s 1 -d -1 -p AODV -e 44 -c 2 -a 0 -i 0 -k RTR
h -t 2.265943708 -s 1 -d -1 -p AODV -e 44 -c 2 -a 0 -i 0 -k RTR
r -t 2.266940085 -s 4 -d -1 -p AODV -e 44 -c 2 -a 0 -i 0 -k RTR
r -t 2.266940375 -s 2 -d -1 -p AODV -e 44 -c 2 -a 0 -i 0 -k RTR
r -t 2.266940375 -s 0 -d -1 -p AODV -e 44 -c 2 -a 0 -i 0 -k RTR
+ -t 2.280000000 -s 0 -d -1 -p cbr -e 1000 -c 2 -a 0 -i 16 -k AGT 
- -t 2.280000000 -s 0 -d -1 -p cbr -e 1000 -c 2 -a 0 -i 16 -k AGT
h -t 2.280000000 -s 0 -d -1 -p cbr -e 1000 -c 2 -a 0 -i 16 -k AGT
+ -t 2.280000000 -s 0 -d 1 -p cbr -e 1020 -c 2 -a 0 -i 16 -k RTR 
- -t 2.280000000 -s 0 -d 1 -p cbr -e 1020 -c 2 -a 0 -i 16 -k RTR
h -t 2.280000000 -s 0 -d 1 -p cbr -e 1020 -c 2 -a 0 -i 16 -k RTR
+ -t 2.289862000 -s 1 -d 2 -p cbr -e 1020 -c 2 -a 0 -i 16 -k RTR 
- -t 2.289862000 -s 1 -d 2 -p cbr -e 1020 -c 2 -a 0 -i 16 -k RTR
h -t 2.289862000 -s 1 -d 2 -p cbr -e 1020 -c 2 -a 0 -i 16 -k RTR
+ -t 2.299868000 -s 2 -d 3 -p cbr -e 1020 -c 2 -a 0 -i 16 -k RTR 
- -t 2.299868000 -s 2 -d 3 -p cbr -e 1020 -c 2 -a 0 -i 16 -k RTR
h -t 2.299868000 -s 2 -d 3 -p cbr -e 1020 -c 2 -a 0 -i 16 -k RTR
r -t 2.309894010 -s 3 -d 3 -p cbr -e 1020 -c 2 -a 0 -i 16 -k AGT
+ -t 2.360000000 -s 0 -d -1 -p cbr -e 1000 -c 2 -a 0 -i 17 -k AGT 
- -t 2.360000000 -s 0 -d -1 -p cbr -e 1000 -c 2 -a 0 -i 17 -k AGT
h -t 2.360000000 -s 0 -d -1 -p cbr -e 1000 -c 2 -a 0 -i 17 -k AGT
+ -t 2.360000000 -s 0 -d 1 -p cbr -e 1020 -c 2 -a 0 -i 17 -k RTR 
- -t 2.360000000 -s 0 -d 1 -p cbr -e 1020 -c 2 -a 0 -i 17 -k RTR
h -t 2.360000000 -s 0 -d 1 -p cbr -e 1020 -c 2 -a 0 -i 17 -k RTR
+ -t 2.369922000 -s 1 -d 2 -p cbr -e 1020 -c 2 -a 0 -i 17 -k RTR 
- -t 2.369922000 -s 1 -d 2 -p cbr -e 1020 -c 2 -a 0 -i 17 -k RTR
h -t 2.369922000 -s 1 -d 2 -p cbr -e 1020 -c 2 -a 0 -i 17 -k RTR
+ -t 2.379628000 -s 2 -d 3 -p cbr -e 1020 -c 2 -a 0 -i 17 -k RTR 
- -t 2.379628000 -s 2 -d 3 -p cbr -e 1020 -c 2 -a 0 -i 17 -k RTR
h -t 2.379628000 -s 2 -d 3 -p cbr -e 1020 -c 2 -a 0 -i 17 -k RTR
r -t 2.389754010 -s 3 -d 3 -p cbr -e 1020 -c 2 -a 0 -i 17 -k AGT
+ -t 2.440000000 -s 0 -d -1 -p cbr -e 1000 -c 2 -a 0 -i 18 -k AGT 
- -t 2.440000000 -s 0 -d -1 -p cbr -e 1000 -c 2 -a 0 -i 18 -k AGT
h -t 2.440000000 -s 0 -d -1 -p cbr -e 1000 -c 2 -a 0 -i 18 -k AGT
+ -t 2.440000000 -s 0 -d 1 -p cbr -e 1020 -c 2 -a 0 -i 18 -k RTR 
- -t 2.440000000 -s 0 -d 1 -p cbr -e 1020 -c 2 -a 0 -i 18 -k RTR
h -t 2.440000000 -s 0 -d 1 -p cbr -e 1020 -c 2 -a 0 -i 18 -k RTR
+ -t 2.449722000 -s 1 -d 2 -p cbr -e 1020 -c 2 -a 0 -i 18 -k RTR 
- -t 2.449722000 -s 1 -d 2 -p cbr -e 1020 -c 2 -a 0 -i 18 -k RTR
h -t 2.449722000 -s 1 -d 2 -p cbr -e 1020 -c 2 -a 0 -i 18 -k RTR
+ -t 2.459668000 -s 2 -d 3 -p cbr -e 1020 -c 2 -a 0 -i 18 -k RTR 
- -t 2.459668000 -s 2 -d 3 -p cbr -e 1020 -c 2 -a 0 -i 18 -k RTR
h -t 2.459668000 -s 2 -d 3 -p cbr -e 1020 -c 2 -a 0 -i 18 -k RTR
r -t 2.469594010 -s 3 -d 3 -p cbr -e 1020 -c 2 -a 0 -i 18 -k AGT
+ -t 2.520000000 -s 0 -d -1 -p cbr -e 1000 -c 2 -a 0 -i 19 -k AGT 
- -t 2.520000000 -s 0 -d -1 -p cbr -e 1000 -c 2 -a 0 -i 19 -k AGT
h -t 2.520000000 -s 0 -d -1 -p cbr -e 1000 -c 2 -a 0 -i 19 -k AGT
+ -t 2.520000000 -s 0 -d 1 -p cbr -e 1020 -c 2 -a 0 -i 19 -k RTR 
- -t 2.520000000 -s 0 -d 1 -p cbr -e 1020 -c 2 -a 0 -i 19 -k RTR
h -t 2.520000000 -s 0 -d 1 -p cbr -e 1020 -c 2 -a 0 -i 19 -k RTR
+ -t 2.529562000 -s 1 -d 2 -p cbr -e 1020 -c 2 -a 0 -i 19 -k RTR 
- -t 2.529562000 -s 1 -d 2 -p cbr -e 1020 -c 2 -a 0 -i 19 -k RTR
h -t 2.529562000 -s 1 -d 2 -p cbr -e 1020 -c 2 -a 0 -i 19 -k RTR
+ -t 2.539568000 -s 2 -d 3 -p cbr -e 1020 -c 2 -a 0 -i 19 -k RTR 
- -t 2.539568000 -s 2 -d 3 -p cbr -e 1020 -c 2 -a 0 -i 19 -k RTR
h -t 2.539568000 -s 2 -d 3 -p cbr -e 1020 -c 2 -a 0 -i 19 -k RTR
r -t 2.549334010 -s 3 -d 3 -p cbr -e 1020 -c 2 -a 0 -i 19 -k AGT
+ -t 2.600000000 -s 0 -d -1 -p cbr -e 1000 -c 2 -a 0 -i 20 -k AGT 
- -t 2.600000000 -s 0 -d -1 -p cbr -e 1000 -c 2 -a 0 -i 20 -k AGT
h -t 2.600000000 -s 0 -d -1 -p cbr -e 1000 -c 2 -a 0 -i 20 -k AGT
+ -t 2.600000000 -s 0 -d 1 -p cbr -e 1020 -c 2 -a 0 -i 20 -k RTR 
- -t 2.600000000 -s 0 -d 1 -p cbr -e 1020 -c 2 -a 0 -i 20 -k RTR
h -t 2.600000000 -s 0 -d 1 -p cbr -e 1020 -c 2 -a 0 -i 20 -k RTR
+ -t 2.609862000 -s 1 -d 2 -p cbr -e 1020 -c 2 -a 0 -i 20 -k RTR 
- -t 2.609862000 -s 1 -d 2 -p cbr -e 1020 -c 2 -a 0 -i 20 -k RTR
h -t 2.609862000 -s 1 -d 2 -p cbr -e 1020 -c 2 -a 0 -i 20 -k RTR
+ -t 2.619788000 -s 2 -d 3 -p cbr -e 1020 -c 2 -a 0 -i 20 -k RTR 
- -t 2.619788000 -s 2 -d 3 -p cbr -e 1020 -c 2 -a 0 -i 20 -k RTR
h -t 2.619788000 -s 2 -d 3 -p cbr -e 1020 -c 2 -a 0 -i 20 -k RTR
r -t 2.629874010 -s 3 -d 3 -p cbr -e 1020 -c 2 -a 0 -i 20 -k AGT
+ -t 2.680000000 -s 0 -d -1 -p cbr -e 1000 -c 2 -a 0 -i 21 -k AGT 
- -t 2.680000000 -s 0 -d -1 -p cbr -e 1000 -c 2 -a 0 -i 21 -k AGT
h -t 2.680000000 -s 0 -d -1 -p cbr -e 1000 -c 2 -a 0 -i 21 -k AGT
+ -t 2.680000000 -s 0 -d 1 -p cbr -e 1020 -c 2 -a 0 -i 21 -k RTR 
- -t 2.680000000 -s 0 -d 1 -p cbr -e 1020 -c 2 -a 0 -i 21 -k RTR
h -t 2.680000000 -s 0 -d 1 -p cbr -e 1020 -c 2 -a 0 -i 21 -k RTR
+ -t 2.689802000 -s 1 -d 2 -p cbr -e 1020 -c 2 -a 0 -i 21 -k RTR 
- -t 2.689802000 -s 1 -d 2 -p cbr -e 1020 -c 2 -a 0 -i 21 -k RTR
h -t 2.689802000 -s 1 -d 2 -p cbr -e 1020 -c 2 -a 0 -i 21 -k RTR
+ -t 2.699568000 -s 2 -d 3 -p cbr -e 1020 -c 2 -a 0 -i 21 -k RTR 
- -t 2.699568000 -s 2 -d 3 -p cbr -e 1020 -c 2 -a 0 -i 21 -k RTR
h -t 2.699568000 -s 2 -d 3 -p cbr -e 1020 -c 2 -a 0 -i 21 -k RTR
r -t 2.709754010 -s 3 -d 3 -p cbr -e 1020 -c 2 -a 0 -i 21 -k AGT
+ -t 2.760000000 -s 0 -d -1 -p cbr -e 1000 -c 2 -a 0 -i 22 -k AGT 
- -t 2.760000000 -s 0 -d -1 -p cbr -e 1000 -c 2 -a 0 -i 22 -k AGT
h -t 2.760000000 -s 0 -d -1 -p cbr -e 1000 -c 2 -a 0 -i 22 -k AGT
+ -t 2.760000000 -s 0 -d 1 -p cbr -e 1020 -c 2 -a 0 -i 22 -k RTR 
- -t 2.760000000 -s 0 -d 1 -p cbr -e 1020 -c 2 -a 0 -i 22 -k RTR