n -t * -s 0  -x 99 -y 299 -Z 0 -z 20  -v circle -c black
n -t * -s 1  -x 299 -y 297 -Z 0 -z 20  -v circle -c black
n -t * -s 2  -x 499 -y 298 -Z 0 -z 20  -v circle -c black
n -t * -s 3  -x 700 -y 299 -Z 0 -z 20  -v circle -c black
n -t * -s 4  -x 199 -y 350 -Z 0 -z 20  -v circle -c black
n -t * -s 5  -x 599 -y 350 -Z 0 -z 20  -v circle -c black
n -t * -s 6  -x 600 -y 200 -Z 0 -z 20  -v circle -c black
V -t * -v 1.0a5 -a 0
W -t * -x 800 -y 541
A -t * -n 1 -p 0 -o 0x7fffffff -c 30 -a 1
A -t * -h 1 -m 1073741823 -s 0
n -t 0 -s 5 -S COLOR -c red -o red -i red -I red
n -t 0 -s 5 -S DLABEL -l "Attacker" -L ""
n -t 0 -s 0 -S COLOR -c green -o green -i green -I green
n -t 0 -s 0 -S DLABEL -l "Source" -L ""
n -t 0 -s 3 -S COLOR -c blue -o blue -i blue -I blue
n -t 0 -s 3 -S DLABEL -l "Destination" -L ""
+ -t 0.000000000 -s 0 -d -1 -p AODV -e 44 -c 2 -a 0 -i 0 -k RTR 
- -t 0.000000000 -s 0 -d -1 -p AODV -e 44 -c 2 -a 0 -i 0 -k RTR
h -t 0.000000000 -s 0 -d -1 -p AODV -e 44 -c 2 -a 0 -i 0 -k RTR
+ -t 0.000000000 -s 1 -d -1 -p AODV -e 44 -c 2 -a 0 -i 0 -k RTR 
- -t 0.000000000 -s 1 -d -1 -p AODV -e 44 -c 2 -a 0 -i 0 -k RTR
h -t 0.000000000 -s 1 -d -1 -p AODV -e 44 -c 2 -a 0 -i 0 -k RTR
+ -t 0.000000000 -s 2 -d -1 -p AODV -e 44 -c 2 -a 0 -i 0 -k RTR 
- -t 0.000000000 -s 2 -d -1 -p AODV -e 44 -c 2 -a 0 -i 0 -k RTR
h -t 0.000000000 -s 2 -d -1 -p AODV -e 44 -c 2 -a 0 -i 0 -k RTR
+ -t 0.000000000 -s 3 -d -1 -p AODV -e 44 -c 2 -a 0 -i 0 -k RTR 
- -t 0.000000000 -s 3 -d -1 -p AODV -e 44 -c 2 -a 0 -i 0 -k RTR
h -t 0.000000000 -s 3 -d -1 -p AODV -e 44 -c 2 -a 0 -i 0 -k RTR
+ -t 0.000000000 -s 4 -d -1 -p AODV -e 44 -c 2 -a 0 -i 0 -k RTR 
- -t 0.000000000 -s 4 -d -1 -p AODV -e 44 -c 2 -a 0 -i 0 -k RTR
h -t 0.000000000 -s 4 -d -1 -p AODV -e 44 -c 2 -a 0 -i 0 -k RTR
+ -t 0.000000000 -s 5 -d -1 -p AODV -e 44 -c 2 -a 0 -i 0 -k RTR 
- -t 0.000000000 -s 5 -d -1 -p AODV -e 44 -c 2 -a 0 -i 0 -k RTR
h -t 0.000000000 -s 5 -d -1 -p AODV -e 44 -c 2 -a 0 -i 0 -k RTR
+ -t 0.000000000 -s 6 -d -1 -p AODV -e 44 -c 2 -a 0 -i 0 -k RTR 
- -t 0.000000000 -s 6 -d -1 -p AODV -e 44 -c 2 -a 0 -i 0 -k RTR
h -t 0.000000000 -s 6 -d -1 -p AODV -e 44 -c 2 -a 0 -i 0 -k RTR
r -t 0.000956376 -s 2 -d -1 -p AODV -e 44 -c 2 -a 0 -i 0 -k RTR
r -t 0.000956377 -s 3 -d -1 -p AODV -e 44 -c 2 -a 0 -i 0 -k RTR
r -t 0.000956500 -s 6 -d -1 -p AODV -e 44 -c 2 -a 0 -i 0 -k RTR
r -t 0.002042754 -s 5 -d -1 -p AODV -e 44 -c 2 -a 0 -i 0 -k RTR
r -t 0.002042846 -s 6 -d -1 -p AODV -e 44 -c 2 -a 0 -i 0 -k RTR
r -t 0.002043047 -s 2 -d -1 -p AODV -e 44 -c 2 -a 0 -i 0 -k RTR
r -t 0.003679384 -s 5 -d -1 -p AODV -e 44 -c 2 -a 0 -i 0 -k RTR
r -t 0.003679478 -s 6 -d -1 -p AODV -e 44 -c 2 -a 0 -i 0 -k RTR
r -t 0.003679675 -s 1 -d -1 -p AODV -e 44 -c 2 -a 0 -i 0 -k RTR
r -t 0.003679679 -s 3 -d -1 -p AODV -e 44 -c 2 -a 0 -i 0 -k RTR
r -t 0.004646053 -s 4 -d -1 -p AODV -e 44 -c 2 -a 0 -i 0 -k RTR
r -t 0.004646342 -s 2 -d -1 -p AODV -e 44 -c 2 -a 0 -i 0 -k RTR
r -t 0.004646342 -s 0 -d -1 -p AODV -e 44 -c 2 -a 0 -i 0 -k RTR
r -t 0.005612427 -s 0 -d -1 -p AODV -e 44 -c 2 -a 0 -i 0 -k RTR
r -t 0.005612430 -s 1 -d -1 -p AODV -e 44 -c 2 -a 0 -i 0 -k RTR
r -t 0.006923949 -s 3 -d -1 -p AODV -e 44 -c 2 -a 0 -i 0 -k RTR
r -t 0.006923949 -s 2 -d -1 -p AODV -e 44 -c 2 -a 0 -i 0 -k RTR
r -t 0.006923980 -s 5 -d -1 -p AODV -e 44 -c 2 -a 0 -i 0 -k RTR
+ -t 0.750169789 -s 0 -d -1 -p AODV -e 44 -c 2 -a 0 -i 0 -k RTR 
- -t 0.750169789 -s 0 -d -1 -p AODV -e 44 -c 2 -a 0 -i 0 -k RTR
h -t 0.750169789 -s 0 -d -1 -p AODV -e 44 -c 2 -a 0 -i 0 -k RTR
r -t 0.751306163 -s 4 -d -1 -p AODV -e 44 -c 2 -a 0 -i 0 -k RTR
r -t 0.751306455 -s 1 -d -1 -p AODV -e 44 -c 2 -a 0 -i 0 -k RTR
+ -t 0.757102330 -s 2 -d -1 -p AODV -e 44 -c 2 -a 0 -i 0 -k RTR 
- -t 0.757102330 -s 2 -d -1 -p AODV -e 44 -c 2 -a 0 -i 0 -k RTR
h -t 0.757102330 -s 2 -d -1 -p AODV -e 44 -c 2 -a 0 -i 0 -k RTR
r -t 0.758458706 -s 5 -d -1 -p AODV -e 44 -c 2 -a 0 -i 0 -k RTR
r -t 0.758458799 -s 6 -d -1 -p AODV -e 44 -c 2 -a 0 -i 0 -k RTR
r -t 0.758458997 -s 1 -d -1 -p AODV -e 44 -c 2 -a 0 -i 0 -k RTR
r -t 0.758459000 -s 3 -d -1 -p AODV -e 44 -c 2 -a 0 -i 0 -k RTR
+ -t 0.794061336 -s 3 -d -1 -p AODV -e 44 -c 2 -a 0 -i 0 -k RTR 
- -t 0.794061336 -s 3 -d -1 -p AODV -e 44 -c 2 -a 0 -i 0 -k RTR
h -t 0.794061336 -s 3 -d -1 -p AODV -e 44 -c 2 -a 0 -i 0 -k RTR
r -t 0.795377713 -s 5 -d -1 -p AODV -e 44 -c 2 -a 0 -i 0 -k RTR
r -t 0.795377805 -s 6 -d -1 -p AODV -e 44 -c 2 -a 0 -i 0 -k RTR
r -t 0.795378006 -s 2 -d -1 -p AODV -e 44 -c 2 -a 0 -i 0 -k RTR
+ -t 0.906480886 -s 6 -d -1 -p AODV -e 44 -c 2 -a 0 -i 0 -k RTR 
- -t 0.906480886 -s 6 -d -1 -p AODV -e 44 -c 2 -a 0 -i 0 -k RTR
h -t 0.906480886 -s 6 -d -1 -p AODV -e 44 -c 2 -a 0 -i 0 -k RTR
r -t 0.907437355 -s 3 -d -1 -p AODV -e 44 -c 2 -a 0 -i 0 -k RTR
r -t 0.907437355 -s 2 -d -1 -p AODV -e 44 -c 2 -a 0 -i 0 -k RTR
r -t 0.907437386 -s 5 -d -1 -p AODV -e 44 -c 2 -a 0 -i 0 -k RTR
+ -t 0.970586691 -s 4 -d -1 -p AODV -e 44 -c 2 -a 0 -i 0 -k RTR 
- -t 0.970586691 -s 4 -d -1 -p AODV -e 44 -c 2 -a 0 -i 0 -k RTR
h -t 0.970586691 -s 4 -d -1 -p AODV -e 44 -c 2 -a 0 -i 0 -k RTR
r -t 0.971643065 -s 0 -d -1 -p AODV -e 44 -c 2 -a 0 -i 0 -k RTR
r -t 0.971643068 -s 1 -d -1 -p AODV -e 44 -c 2 -a 0 -i 0 -k RTR
+ -t 1.000000000 -s 0 -d -1 -p cbr -e 1000 -c 2 -a 0 -i 0 -k AGT 
- -t 1.000000000 -s 0 -d -1 -p cbr -e 1000 -c 2 -a 0 -i 0 -k AGT
h -t 1.000000000 -s 0 -d -1 -p cbr -e 1000 -c 2 -a 0 -i 0 -k AGT
+ -t 1.000000000 -s 0 -d -1 -p AODV -e 48 -c 2 -a 0 -i 0 -k RTR 
- -t 1.000000000 -s 0 -d -1 -p AODV -e 48 -c 2 -a 0 -i 0 -k RTR
h -t 1.000000000 -s 0 -d -1 -p AODV -e 48 -c 2 -a 0 -i 0 -k RTR
r -t 1.001228374 -s 4 -d -1 -p AODV -e 48 -c 2 -a 0 -i 0 -k RTR
r -t 1.001228667 -s 1 -d -1 -p AODV -e 48 -c 2 -a 0 -i 0 -k RTR
+ -t 1.003102027 -s 4 -d -1 -p AODV -e 48 -c 2 -a 0 -i 0 -k RTR 
- -t 1.003102027 -s 4 -d -1 -p AODV -e 48 -c 2 -a 0 -i 0 -k RTR
h -t 1.003102027 -s 4 -d -1 -p AODV -e 48 -c 2 -a 0 -i 0 -k RTR
r -t 1.004270401 -s 0 -d -1 -p AODV -e 48 -c 2 -a 0 -i 0 -k RTR
r -t 1.004270404 -s 1 -d -1 -p AODV -e 48 -c 2 -a 0 -i 0 -k RTR
+ -t 1.010103102 -s 1 -d -1 -p AODV -e 48 -c 2 -a 0 -i 0 -k RTR 
- -t 1.010103102 -s 1 -d -1 -p AODV -e 48 -c 2 -a 0 -i 0 -k RTR
h -t 1.010103102 -s 1 -d -1 -p AODV -e 48 -c 2 -a 0 -i 0 -k RTR
r -t 1.011631479 -s 4 -d -1 -p AODV -e 48 -c 2 -a 0 -i 0 -k RTR
r -t 1.011631769 -s 2 -d -1 -p AODV -e 48 -c 2 -a 0 -i 0 -k RTR
r -t 1.011631769 -s 0 -d -1 -p AODV -e 48 -c 2 -a 0 -i 0 -k RTR
+ -t 1.011739852 -s 2 -d -1 -p AODV -e 48 -c 2 -a 0 -i 0 -k RTR 
- -t 1.011739852 -s 2 -d -1 -p AODV -e 48 -c 2 -a 0 -i 0 -k RTR
h -t 1.011739852 -s 2 -d -1 -p AODV -e 48 -c 2 -a 0 -i 0 -k RTR
r -t 1.013028228 -s 5 -d -1 -p AODV -e 48 -c 2 -a 0 -i 0 -k RTR
+ -t 1.013028228 -s 5 -d 2 -p AODV -e 44 -c 2 -a 0 -i 0 -k RTR 
- -t 1.013028228 -s 5 -d 2 -p AODV -e 44 -c 2 -a 0 -i 0 -k RTR
h -t 1.013028228 -s 5 -d 2 -p AODV -e 44 -c 2 -a 0 -i 0 -k RTR
r -t 1.013028321 -s 6 -d -1 -p AODV -e 48 -c 2 -a 0 -i 0 -k RTR
r -t 1.013028519 -s 1 -d -1 -p AODV -e 48 -c 2 -a 0 -i 0 -k RTR
r -t 1.013028522 -s 3 -d -1 -p AODV -e 48 -c 2 -a 0 -i 0 -k RTR
+ -t 1.013028522 -s 3 -d 2 -p AODV -e 44 -c 2 -a 0 -i 0 -k RTR 
- -t 1.013028522 -s 3 -d 2 -p AODV -e 44 -c 2 -a 0 -i 0 -k RTR
h -t 1.013028522 -s 3 -d 2 -p AODV -e 44 -c 2 -a 0 -i 0 -k RTR
+ -t 1.018289295 -s 2 -d 1 -p AODV -e 44 -c 2 -a 0 -i 0 -k RTR 
- -t 1.018289295 -s 2 -d 1 -p AODV -e 44 -c 2 -a 0 -i 0 -k RTR
h -t 1.018289295 -s 2 -d 1 -p AODV -e 44 -c 2 -a 0 -i 0 -k RTR
+ -t 1.026907216 -s 1 -d 0 -p AODV -e 44 -c 2 -a 0 -i 0 -k RTR 
- -t 1.026907216 -s 1 -d 0 -p AODV -e 44 -c 2 -a 0 -i 0 -k RTR
h -t 1.026907216 -s 1 -d 0 -p AODV -e 44 -c 2 -a 0 -i 0 -k RTR
+ -t 1.027940358 -s 1 -d -1 -p AODV -e 44 -c 2 -a 0 -i 0 -k RTR 
- -t 1.027940358 -s 1 -d -1 -p AODV -e 44 -c 2 -a 0 -i 0 -k RTR
h -t 1.027940358 -s 1 -d -1 -p AODV -e 44 -c 2 -a 0 -i 0 -k RTR
r -t 1.029085593 -s 4 -d -1 -p AODV -e 44 -c 2 -a 0 -i 0 -k RTR
r -t 1.029085883 -s 2 -d -1 -p AODV -e 44 -c 2 -a 0 -i 0 -k RTR
r -t 1.029085883 -s 0 -d -1 -p AODV -e 44 -c 2 -a 0 -i 0 -k RTR
+ -t 1.032959883 -s 0 -d 1 -p cbr -e 1020 -c 2 -a 0 -i 0 -k RTR 
- -t 1.032959883 -s 0 -d 1 -p cbr -e 1020 -c 2 -a 0 -i 0 -k RTR
h -t 1.032959883 -s 0 -d 1 -p cbr -e 1020 -c 2 -a 0 -i 0 -k RTR
+ -t 1.042825883 -s 1 -d 2 -p cbr -e 1020 -c 2 -a 0 -i 0 -k RTR 
- -t 1.042825883 -s 1 -d 2 -p cbr -e 1020 -c 2 -a 0 -i 0 -k RTR
h -t 1.042825883 -s 1 -d 2 -p cbr -e 1020 -c 2 -a 0 -i 0 -k RTR
+ -t 1.052951883 -s 2 -d 3 -p cbr -e 1020 -c 2 -a 0 -i 0 -k RTR 
- -t 1.052951883 -s 2 -d 3 -p cbr -e 1020 -c 2 -a 0 -i 0 -k RTR
h -t 1.052951883 -s 2 -d 3 -p cbr -e 1020 -c 2 -a 0 -i 0 -k RTR
r -t 1.062817893 -s 3 -d 3 -p cbr -e 1020 -c 2 -a 0 -i 0 -k AGT
+ -t 1.080000000 -s 0 -d -1 -p cbr -e 1000 -c 2 -a 0 -i 1 -k AGT 
- -t 1.080000000 -s 0 -d -1 -p cbr -e 1000 -c 2 -a 0 -i 1 -k AGT
h -t 1.080000000 -s 0 -d -1 -p cbr -e 1000 -c 2 -a 0 -i 1 -k AGT
+ -t 1.080000000 -s 0 -d 1 -p cbr -e 1020 -c 2 -a 0 -i 1 -k RTR 
- -t 1.080000000 -s 0 -d 1 -p cbr -e 1020 -c 2 -a 0 -i 1 -k RTR
h -t 1.080000000 -s 0 -d 1 -p cbr -e 1020 -c 2 -a 0 -i 1 -k RTR
+ -t 1.089662000 -s 1 -d 2 -p cbr -e 1020 -c 2 -a 0 -i 1 -k RTR 
- -t 1.089662000 -s 1 -d 2 -p cbr -e 1020 -c 2 -a 0 -i 1 -k RTR
h -t 1.089662000 -s 1 -d 2 -p cbr -e 1020 -c 2 -a 0 -i 1 -k RTR
+ -t 1.099528000 -s 2 -d 3 -p cbr -e 1020 -c 2 -a 0 -i 1 -k RTR 
- -t 1.099528000 -s 2 -d 3 -p cbr -e 1020 -c 2 -a 0 -i 1 -k RTR
h -t 1.099528000 -s 2 -d 3 -p cbr -e 1020 -c 2 -a 0 -i 1 -k RTR
r -t 1.109534010 -s 3 -d 3 -p cbr -e 1020 -c 2 -a 0 -i 1 -k AGT
+ -t 1.149577727 -s 5 -d -1 -p AODV -e 44 -c 2 -a 0 -i 0 -k RTR 
- -t 1.149577727 -s 5 -d -1 -p AODV -e 44 -c 2 -a 0 -i 0 -k RTR
h -t 1.149577727 -s 5 -d -1 -p AODV -e 44 -c 2 -a 0 -i 0 -k RTR
r -t 1.151074102 -s 2 -d -1 -p AODV -e 44 -c 2 -a 0 -i 0 -k RTR
r -t 1.151074104 -s 3 -d -1 -p AODV -e 44 -c 2 -a 0 -i 0 -k RTR
r -t 1.151074227 -s 6 -d -1 -p AODV -e 44 -c 2 -a 0 -i 0 -k RTR
+ -t 1.160000000 -s 0 -d -1 -p cbr -e 1000 -c 2 -a 0 -i 2 -k AGT 
- -t 1.160000000 -s 0 -d -1 -p cbr -e 1000 -c 2 -a 0 -i 2 -k AGT
h -t 1.160000000 -s 0 -d -1 -p cbr -e 1000 -c 2 -a 0 -i 2 -k AGT
+ -t 1.160000000 -s 0 -d 1 -p cbr -e 1020 -c 2 -a 0 -i 2 -k RTR 
- -t 1.160000000 -s 0 -d 1 -p cbr -e 1020 -c 2 -a 0 -i 2 -k RTR
h -t 1.160000000 -s 0 -d 1 -p cbr -e 1020 -c 2 -a 0 -i 2 -k RTR
+ -t 1.170002000 -s 1 -d 2 -p cbr -e 1020 -c 2 -a 0 -i 2 -k RTR 
- -t 1.170002000 -s 1 -d 2 -p cbr -e 1020 -c 2 -a 0 -i 2 -k RTR
h -t 1.170002000 -s 1 -d 2 -p cbr -e 1020 -c 2 -a 0 -i 2 -k RTR
+ -t 1.180108000 -s 2 -d 3 -p cbr -e 1020 -c 2 -a 0 -i 2 -k RTR 
- -t 1.180108000 -s 2 -d 3 -p cbr -e 1020 -c 2 -a 0 -i 2 -k RTR
h -t 1.180108000 -s 2 -d 3 -p cbr -e 1020 -c 2 -a 0 -i 2 -k RTR
r -t 1.190074010 -s 3 -d 3 -p cbr -e 1020 -c 2 -a 0 -i 2 -k AGT
+ -t 1.240000000 -s 0 -d -1 -p cbr -e 1000 -c 2 -a 0 -i 3 -k AGT 
- -t 1.240000000 -s 0 -d -1 -p cbr -e 1000 -c 2 -a 0 -i 3 -k AGT
h -t 1.240000000 -s 0 -d -1 -p cbr -e 1000 -c 2 -a 0 -i 3 -k AGT
+ -t 1.240000000 -s 0 -d 1 -p cbr -e 1020 -c 2 -a 0 -i 3 -k RTR 
- -t 1.240000000 -s 0 -d 1 -p cbr -e 1020 -c 2 -a 0 -i 3 -k RTR
h -t 1.240000000 -s 0 -d 1 -p cbr -e 1020 -c 2 -a 0 -i 3 -k RTR
+ -t 1.249742000 -s 1 -d 2 -p cbr -e 1020 -c 2 -a 0 -i 3 -k RTR 
- -t 1.249742000 -s 1 -d 2 -p cbr -e 1020 -c 2 -a 0 -i 3 -k RTR
h -t 1.249742000 -s 1 -d 2 -p cbr -e 1020 -c 2 -a 0 -i 3 -k RTR
+ -t 1.259448000 -s 2 -d 3 -p cbr -e 1020 -c 2 -a 0 -i 3 -k RTR 
- -t 1.259448000 -s 2 -d 3 -p cbr -e 1020 -c 2 -a 0 -i 3 -k RTR
h -t 1.259448000 -s 2 -d 3 -p cbr -e 1020 -c 2 -a 0 -i 3 -k RTR
r -t 1.269334010 -s 3 -d 3 -p cbr -e 1020 -c 2 -a 0 -i 3 -k AGT
+ -t 1.320000000 -s 0 -d -1 -p cbr -e 1000 -c 2 -a 0 -i 4 -k AGT 
- -t 1.320000000 -s 0 -d -1 -p cbr -e 1000 -c 2 -a 0 -i 4 -k AGT
h -t 1.320000000 -s 0 -d -1 -p cbr -e 1000 -c 2 -a 0 -i 4 -k AGT
+ -t 1.320000000 -s 0 -d 1 -p cbr -e 1020 -c 2 -a 0 -i 4 -k RTR 
- -t 1.320000000 -s 0 -d 1 -p cbr -e 1020 -c 2 -a 0 -i 4 -k RTR
h -t 1.320000000 -s 0 -d 1 -p cbr -e 1020 -c 2 -a 0 -i 4 -k RTR
+ -t 1.329842000 -s 1 -d 2 -p cbr -e 1020 -c 2 -a 0 -i 4 -k RTR 
- -t 1.329842000 -s 1 -d 2 -p cbr -e 1020 -c 2 -a 0 -i 4 -k RTR
h -t 1.329842000 -s 1 -d 2 -p cbr -e 1020 -c 2 -a 0 -i 4 -k RTR
+ -t 1.339908000 -s 2 -d 3 -p cbr -e 1020 -c 2 -a 0 -i 4 -k RTR 
- -t 1.339908000 -s 2 -d 3 -p cbr -e 1020 -c 2 -a 0 -i 4 -k RTR
h -t 1.339908000 -s 2 -d 3 -p cbr -e 1020 -c 2 -a 0 -i 4 -k RTR
r -t 1.349734010 -s 3 -d 3 -p cbr -e 1020 -c 2 -a 0 -i 4 -k AGT
+ -t 1.400000000 -s 0 -d -1 -p cbr -e 1000 -c 2 -a 0 -i 5 -k AGT 
- -t 1.400000000 -s 0 -d -1 -p cbr -e 1000 -c 2 -a 0 -i 5 -k AGT
h -t 1.400000000 -s 0 -d -1 -p cbr -e 1000 -c 2 -a 0 -i 5 -k AGT
+ -t 1.400000000 -s 0 -d 1 -p cbr -e 1020 -c 2 -a 0 -i 5 -k RTR 
- -t 1.400000000 -s 0 -d 1 -p cbr -e 1020 -c 2 -a 0 -i 5 -k RTR
h -t 1.400000000 -s 0 -d 1 -p cbr -e 1020 -c 2 -a 0 -i 5 -k RTR
+ -t 1.409542000 -s 1 -d 2 -p cbr -e 1020 -c 2 -a 0 -i 5 -k RTR 
- -t 1.409542000 -s 1 -d 2 -p cbr -e 1020 -c 2 -a 0 -i 5 -k RTR
h -t 1.409542000 -s 1 -d 2 -p cbr -e 1020 -c 2 -a 0 -i 5 -k RTR
+ -t 1.419568000 -s 2 -d 3 -p cbr -e 1020 -c 2 -a 0 -i 5 -k RTR 
- -t 1.419568000 -s 2 -d 3 -p cbr -e 1020 -c 2 -a 0 -i 5 -k RTR
h -t 1.419568000 -s 2 -d 3 -p cbr -e 1020 -c 2 -a 0 -i 5 -k RTR
r -t 1.429654010 -s 3 -d 3 -p cbr -e 1020 -c 2 -a 0 -i 5 -k AGT
+ -t 1.480000000 -s 0 -d -1 -p cbr -e 1000 -c 2 -a 0 -i 6 -k AGT 
- -t 1.480000000 -s 0 -d -1 -p cbr -e 1000 -c 2 -a 0 -i 6 -k AGT
h -t 1.480000000 -s 0 -d -1 -p cbr -e 1000 -c 2 -a 0 -i 6 -k AGT
+ -t 1.480000000 -s 0 -d 1 -p cbr -e 1020 -c 2 -a 0 -i 6 -k RTR 
- -t 1.480000000 -s 0 -d 1 -p cbr -e 1020 -c 2 -a 0 -i 6 -k RTR
h -t 1.480000000 -s 0 -d 1 -p cbr -e 1020 -c 2 -a 0 -i 6 -k RTR
+ -t 1.489562000 -s 1 -d 2 -p cbr -e 1020 -c 2 -a 0 -i 6 -k RTR 
- -t 1.489562000 -s 1 -d 2 -p cbr -e 1020 -c 2 -a 0 -i 6 -k RTR
h -t 1.489562000 -s 1 -d 2 -p cbr -e 1020 -c 2 -a 0 -i 6 -k RTR
+ -t 1.499248000 -s 2 -d 3 -p cbr -e 1020 -c 2 -a 0 -i 6 -k RTR 
- -t 1.499248000 -s 2 -d 3 -p cbr -e 1020 -c 2 -a 0 -i 6 -k RTR
h -t 1.499248000 -s 2 -d 3 -p cbr -e 1020 -c 2 -a 0 -i 6 -k RTR
r -t 1.509014010 -s 3 -d 3 -p cbr -e 1020 -c 2 -a 0 -i 6 -k AGT
+ -t 1.560000000 -s 0 -d -1 -p cbr -e 1000 -c 2 -a 0 -i 7 -k AGT 
- -t 1.560000000 -s 0 -d -1 -p cbr -e 1000 -c 2 -a 0 -i 7 -k AGT
h -t 1.560000000 -s 0 -d -1 -p cbr -e 1000 -c 2 -a 0 -i 7 -k AGT
+ -t 1.560000000 -s 0 -d 1 -p cbr -e 1020 -c 2 -a 0 -i 7 -k RTR 
- -t 1.560000000 -s 0 -d 1 -p cbr -e 1020 -c 2 -a 0 -i 7 -k RTR
h -t 1.560000000 -s 0 -d 1 -p cbr -e 1020 -c 2 -a 0 -i 7 -k RTR
+ -t 1.569922000 -s 1 -d 2 -p cbr -e 1020 -c 2 -a 0 -i 7 -k RTR 
- -t 1.569922000 -s 1 -d 2 -p cbr -e 1020 -c 2 -a 0 -i 7 -k RTR
h -t 1.569922000 -s 1 -d 2 -p cbr -e 1020 -c 2 -a 0 -i 7 -k RTR
+ -t 1.580188000 -s 2 -d 3 -p cbr -e 1020 -c 2 -a 0 -i 7 -k RTR 
- -t 1.580188000 -s 2 -d 3 -p cbr -e 1020 -c 2 -a 0 -i 7 -k RTR
h -t 1.580188000 -s 2 -d 3 -p cbr -e 1020 -c 2 -a 0 -i 7 -k RTR
r -t 1.589874010 -s 3 -d 3 -p cbr -e 1020 -c 2 -a 0 -i 7 -k AGT
+ -t 1.640000000 -s 0 -d -1 -p cbr -e 1000 -c 2 -a 0 -i 8 -k AGT 
- -t 1.640000000 -s 0 -d -1 -p cbr -e 1000 -c 2 -a 0 -i 8 -k AGT
h -t 1.640000000 -s 0 -d -1 -p cbr -e 1000 -c 2 -a 0 -i 8 -k AGT
+ -t 1.640000000 -s 0 -d 1 -p cbr -e 1020 -c 2 -a 0 -i 8 -k RTR 
- -t 1.640000000 -s 0 -d 1 -p cbr -e 1020 -c 2 -a 0 -i 8 -k RTR
h -t 1.640000000 -s 0 -d 1 -p cbr -e 1020 -c 2 -a 0 -i 8 -k RTR
+ -t 1.649662000 -s 1 -d 2 -p cbr -e 1020 -c 2 -a 0 -i 8 -k RTR 
- -t 1.649662000 -s 1 -d 2 -p cbr -e 1020 -c 2 -a 0 -i 8 -k RTR
h -t 1.649662000 -s 1 -d 2 -p cbr -e 1020 -c 2 -a 0 -i 8 -k RTR
+ -t 1.659348000 -s 2 -d 3 -p cbr -e 1020 -c 2 -a 0 -i 8 -k RTR 
- -t 1.659348000 -s 2 -d 3 -p cbr -e 1020 -c 2 -a 0 -i 8 -k RTR
h -t 1.659348000 -s 2 -d 3 -p cbr -e 1020 -c 2 -a 0 -i 8 -k RTR
r -t 1.669394010 -s 3 -d 3 -p cbr -e 1020 -c 2 -a 0 -i 8 -k AGT
+ -t 1.674540301 -s 0 -d -1 -p AODV -e 44 -c 2 -a 0 -i 0 -k RTR 
- -t 1.674540301 -s 0 -d -1 -p AODV -e 44 -c 2 -a 0 -i 0 -k RTR
h -t 1.674540301 -s 0 -d -1 -p AODV -e 44 -c 2 -a 0 -i 0 -k RTR
r -t 1.675776676 -s 4 -d -1 -p AODV -e 44 -c 2 -a 0 -i 0 -k RTR
r -t 1.675776968 -s 1 -d -1 -p AODV -e 44 -c 2 -a 0 -i 0 -k RTR
+ -t 1.720000000 -s 0 -d -1 -p cbr -e 1000 -c 2 -a 0 -i 9 -k AGT 
- -t 1.720000000 -s 0 -d -1 -p cbr -e 1000 -c 2 -a 0 -i 9 -k AGT
h -t 1.720000000 -s 0 -d -1 -p cbr -e 1000 -c 2 -a 0 -i 9 -k AGT
+ -t 1.720000000 -s 0 -d 1 -p cbr -e 1020 -c 2 -a 0 -i 9 -k RTR 
- -t 1.720000000 -s 0 -d 1 -p cbr -e 1020 -c 2 -a 0 -i 9 -k RTR
h -t 1.720000000 -s 0 -d 1 -p cbr -e 1020 -c 2 -a 0 -i 9 -k RTR
+ -t 1.729942000 -s 1 -d 2 -p cbr -e 1020 -c 2 -a 0 -i 9 -k RTR 
- -t 1.729942000 -s 1 -d 2 -p cbr -e 1020 -c 2 -a 0 -i 9 -k RTR
h -t 1.729942000 -s 1 -d 2 -p cbr -e 1020 -c 2 -a 0 -i 9 -k RTR
+ -t 1.739788000 -s 2 -d 3 -p cbr -e 1020 -c 2 -a 0 -i 9 -k RTR 
- -t 1.739788000 -s 2 -d 3 -p cbr -e 1020 -c 2 -a 0 -i 9 -k RTR
h -t 1.739788000 -s 2 -d 3 -p cbr -e 1020 -c 2 -a 0 -i 9 -k RTR
r -t 1.749694010 -s 3 -d 3 -p cbr -e 1020 -c 2 -a 0 -i 9 -k AGT
+ -t 1.766426728 -s 2 -d -1 -p AODV -e 44 -c 2 -a 0 -i 0 -k RTR 
- -t 1.766426728 -s 2 -d -1 -p AODV -e 44 -c 2 -a 0 -i 0 -k RTR
h -t 1.766426728 -s 2 -d -1 -p AODV -e 44 -c 2 -a 0 -i 0 -k RTR
r -t 1.767883103 -s 5 -d -1 -p AODV -e 44 -c 2 -a 0 -i 0 -k RTR
r -t 1.767883197 -s 6 -d -1 -p AODV -e 44 -c 2 -a 0 -i 0 -k RTR
r -t 1.767883394 -s 1 -d -1 -p AODV -e 44 -c 2 -a 0 -i 0 -k RTR
r -t 1.767883398 -s 3 -d -1 -p AODV -e 44 -c 2 -a 0 -i 0 -k RTR
+ -t 1.777093700 -s 6 -d -1 -p AODV -e 44 -c 2 -a 0 -i 0 -k RTR 
- -t 1.777093700 -s 6 -d -1 -p AODV -e 44 -c 2 -a 0 -i 0 -k RTR
h -t 1.777093700 -s 6 -d -1 -p AODV -e 44 -c 2 -a 0 -i 0 -k RTR
r -t 1.778590169 -s 3 -d -1 -p AODV -e 44 -c 2 -a 0 -i 0 -k RTR
r -t 1.778590169 -s 2 -d -1 -p AODV -e 44 -c 2 -a 0 -i 0 -k RTR
r -t 1.778590200 -s 5 -d -1 -p AODV -e 44 -c 2 -a 0 -i 0 -k RTR
+ -t 1.800000000 -s 0 -d -1 -p cbr -e 1000 -c 2 -a 0 -i 10 -k AGT 
- -t 1.800000000 -s 0 -d -1 -p cbr -e 1000 -c 2 -a 0 -i 10 -k AGT
h -t 1.800000000 -s 0 -d -1 -p cbr -e 1000 -c 2 -a 0 -i 10 -k AGT
+ -t 1.800000000 -s 0 -d 1 -p cbr -e 1020 -c 2 -a 0 -i 10 -k RTR 
- -t 1.800000000 -s 0 -d 1 -p cbr -e 1020 -c 2 -a 0 -i 10 -k RTR
h -t 1.800000000 -s 0 -d 1 -p cbr -e 1020 -c 2 -a 0 -i 10 -k RTR
+ -t 1.809922000 -s 1 -d 2 -p cbr -e 1020 -c 2 -a 0 -i 10 -k RTR 
- -t 1.809922000 -s 1 -d 2 -p cbr -e 1020 -c 2 -a 0 -i 10 -k RTR
h -t 1.809922000 -s 1 -d 2 -p cbr -e 1020 -c 2 -a 0 -i 10 -k RTR
+ -t 1.819728000 -s 2 -d 3 -p cbr -e 1020 -c 2 -a 0 -i 10 -k RTR 
- -t 1.819728000 -s 2 -d 3 -p cbr -e 1020 -c 2 -a 0 -i 10 -k RTR
h -t 1.819728000 -s 2 -d 3 -p cbr -e 1020 -c 2 -a 0 -i 10 -k RTR
r -t 1.829914010 -s 3 -d 3 -p cbr -e 1020 -c 2 -a 0 -i 10 -k AGT
+ -t 1.880000000 -s 0 -d -1 -p cbr -e 1000 -c 2 -a 0 -i 11 -k AGT 
- -t 1.880000000 -s 0 -d -1 -p cbr -e 1000 -c 2 -a 0 -i 11 -k AGT
h -t 1.880000000 -s 0 -d -1 -p cbr -e 1000 -c 2 -a 0 -i 11 -k AGT
+ -t 1.880000000 -s 0 -d 1 -p cbr -e 1020 -c 2 -a 0 -i 11 -k RTR 
- -t 1.880000000 -s 0 -d 1 -p cbr -e 1020 -c 2 -a 0 -i 11 -k RTR
h -t 1.880000000 -s 0 -d 1 -p cbr -e 1020 -c 2 -a 0 -i 11 -k RTR
+ -t 1.889402000 -s 1 -d 2 -p cbr -e 1020 -c 2 -a 0 -i 11 -k RTR 
- -t 1.889402000 -s 1 -d 2 -p cbr -e 1020 -c 2 -a 0 -i 11 -k RTR
h -t 1.889402000 -s 1 -d 2 -p cbr -e 1020 -c 2 -a 0 -i 11 -k RTR
+ -t 1.899448000 -s 2 -d 3 -p cbr -e 1020 -c 2 -a 0 -i 11 -k RTR 
- -t 1.899448000 -s 2 -d 3 -p cbr -e 1020 -c 2 -a 0 -i 11 -k RTR
h -t 1.899448000 -s 2 -d 3 -p cbr -e 1020 -c 2 -a 0 -i 11 -k RTR
r -t 1.909354010 -s 3 -d 3 -p cbr -e 1020 -c 2 -a 0 -i 11 -k AGT
+ -t 1.960000000 -s 0 -d -1 -p cbr -e 1000 -c 2 -a 0 -i 12 -k AGT 
- -t 1.960000000 -s 0 -d -1 -p cbr -e 1000 -c 2 -a 0 -i 12 -k AGT
h -t 1.960000000 -s 0 -d -1 -p cbr -e 1000 -c 2 -a 0 -i 12 -k AGT
+ -t 1.960000000 -s 0 -d 1 -p cbr -e 1020 -c 2 -a 0 -i 12 -k RTR 
- -t 1.960000000 -s 0 -d 1 -p cbr -e 1020 -c 2 -a 0 -i 12 -k RTR
h -t 1.960000000 -s 0 -d 1 -p cbr -e 1020 -c 2 -a 0 -i 12 -k RTR
+ -t 1.969762000 -s 1 -d 2 -p cbr -e 1020 -c 2 -a 0 -i 12 -k RTR 
- -t 1.969762000 -s 1 -d 2 -p cbr -e 1020 -c 2 -a 0 -i 12 -k RTR
h -t 1.969762000 -s 1 -d 2 -p cbr -e 1020 -c 2 -a 0 -i 12 -k RTR
+ -t 1.975094976 -s 3 -d -1 -p AODV -e 44 -c 2 -a 0 -i 0 -k RTR 
- -t 1.975094976 -s 3 -d -1 -p AODV -e 44 -c 2 -a 0 -i 0 -k RTR
h -t 1.975094976 -s 3 -d -1 -p AODV -e 44 -c 2 -a 0 -i 0 -k RTR
+ -t 1.979588000 -s 2 -d 3 -p cbr -e 1020 -c 2 -a 0 -i 12 -k RTR 
- -t 1.979588000 -s 2 -d 3 -p cbr -e 1020 -c 2 -a 0 -i 12 -k RTR
h -t 1.979588000 -s 2 -d 3 -p cbr -e 1020 -c 2 -a 0 -i 12 -k RTR
r -t 1.980959047 -s 5 -d -1 -p AODV -e 44 -c 2 -a 0 -i 0 -k RTR
r -t 1.980959139 -s 6 -d -1 -p AODV -e 44 -c 2 -a 0 -i 0 -k RTR
r -t 1.980959340 -s 2 -d -1 -p AODV -e 44 -c 2 -a 0 -i 0 -k RTR
r -t 1.990671350 -s 3 -d 3 -p cbr -e 1020 -c 2 -a 0 -i 12 -k AGT
+ -t 2.040000000 -s 0 -d -1 -p cbr -e 1000 -c 2 -a 0 -i 13 -k AGT 
- -t 2.040000000 -s 0 -d -1 -p cbr -e 1000 -c 2 -a 0 -i 13 -k AGT
h -t 2.040000000 -s 0 -d -1 -p cbr -e 1000 -c 2 -a 0 -i 13 -k AGT
+ -t 2.040000000 -s 0 -d 1 -p cbr -e 1020 -c 2 -a 0 -i 13 -k RTR 
- -t 2.040000000 -s 0 -d 1 -p cbr -e 1020 -c 2 -a 0 -i 13 -k RTR
h -t 2.040000000 -s 0 -d 1 -p cbr -e 1020 -c 2 -a 0 -i 13 -k RTR
+ -t 2.049762000 -s 1 -d 2 -p cbr -e 1020 -c 2 -a 0 -i 13 -k RTR 
- -t 2.049762000 -s 1 -d 2 -p cbr -e 1020 -c 2 -a 0 -i 13 -k RTR
h -t 2.049762000 -s 1 -d 2 -p cbr -e 1020 -c 2 -a 0 -i 13 -k RTR
+ -t 2.059428000 -s 2 -d 3 -p cbr -e 1020 -c 2 -a 0 -i 13 -k RTR 
- -t 2.059428000 -s 2 -d 3 -p cbr -e 1020 -c 2 -a 0 -i 13 -k RTR
h -t 2.059428000 -s 2 -d 3 -p cbr -e 1020 -c 2 -a 0 -i 13 -k RTR
r -t 2.069654010 -s 3 -d 3 -p cbr -e 1020 -c 2 -a 0 -i 13 -k AGT
+ -t 2.101702637 -s 4 -d -1 -p AODV -e 44 -c 2 -a 0 -i 0 -k RTR 
- -t 2.101702637 -s 4 -d -1 -p AODV -e 44 -c 2 -a 0 -i 0 -k RTR
h -t 2.101702637 -s 4 -d -1 -p AODV -e 44 -c 2 -a 0 -i 0 -k RTR
r -t 2.103099012 -s 0 -d -1 -p AODV -e 44 -c 2 -a 0 -i 0 -k RTR
r -t 2.103099015 -s 1 -d -1 -p AODV -e 44 -c 2 -a 0 -i 0 -k RTR
+ -t 2.120000000 -s 0 -d -1 -p cbr -e 1000 -c 2 -a 0 -i 14 -k AGT 
- -t 2.120000000 -s 0 -d -1 -p cbr -e 1000 -c 2 -a 0 -i 14 -k AGT
h -t 2.120000000 -s 0 -d -1 -p cbr -e 1000 -c 2 -a 0 -i 14 -k AGT
+ -t 2.120000000 -s 0 -d 1 -p cbr -e 1020 -c 2 -a 0 -i 14 -k RTR 
- -t 2.120000000 -s 0 -d 1 -p cbr -e 1020 -c 2 -a 0 -i 14 -k RTR
h -t 2.120000000 -s 0 -d 1 -p cbr -e 1020 -c 2 -a 0 -i 14 -k RTR
+ -t 2.129922000 -s 1 -d 2 -p cbr -e 1020 -c 2 -a 0 -i 14 -k RTR 
- -t 2.129922000 -s 1 -d 2 -p cbr -e 1020 -c 2 -a 0 -i 14 -k RTR
h -t 2.129922000 -s 1 -d 2 -p cbr -e 1020 -c 2 -a 0 -i 14 -k RTR
+ -t 2.140088000 -s 2 -d 3 -p cbr -e 1020 -c 2 -a 0 -i 14 -k RTR 
- -t 2.140088000 -s 2 -d 3 -p cbr -e 1020 -c 2 -a 0 -i 14 -k RTR
h -t 2.140088000 -s 2 -d 3 -p cbr -e 1020 -c 2 -a 0 -i 14 -k RTR
r -t 2.150354010 -s 3 -d 3 -p cbr -e 1020 -c 2 -a 0 -i 14 -k AGT
+ -t 2.164288227 -s 1 -d -1 -p AODV -e 44 -c 2 -a 0 -i 0 -k RTR 
- -t 2.164288227 -s 1 -d -1 -p AODV -e 44 -c 2 -a 0 -i 0 -k RTR
h -t 2.164288227 -s 1 -d -1 -p AODV -e 44 -c 2 -a 0 -i 0 -k RTR
r -t 2.165584604 -s 4 -d -1 -p AODV -e 44 -c 2 -a 0 -i 0 -k RTR
r -t 2.165584893 -s 2 -d -1 -p AODV -e 44 -c 2 -a 0 -i 0 -k RTR
r -t 2.165584893 -s 0 -d -1 -p AODV -e 44 -c 2 -a 0 -i 0 -k RTR
+ -t 2.200000000 -s 0 -d -1 -p cbr -e 1000 -c 2 -a 0 -i 15 -k AGT 
- -t 2.200000000 -s 0 -d -1 -p cbr -e 1000 -c 2 -a 0 -i 15 -k AGT
h -t 2.200000000 -s 0 -d -1 -p cbr -e 1000 -c 2 -a 0 -i 15 -k AGT
+ -t 2.200000000 -s 0 -d 1 -p cbr -e 1020 -c 2 -a 0 -i 15 -k RTR 
- -t 2.200000000 -s 0 -d 1 -p cbr -e 1020 -c 2 -a 0 -i 15 -k RTR
h -t 2.200000000 -s 0 -d 1 -p cbr -e 1020 -c 2 -a 0 -i 15 -k RTR
+ -t 2.209702000 -s 1 -d 2 -p cbr -e 1020 -c 2 -a 0 -i 15 -k RTR 
- -t 2.209702000 -s 1 -d 2 -p cbr -e 1020 -c 2 -a 0 -i 15 -k RTR
h -t 2.209702000 -s 1 -d 2 -p cbr -e 1020 -c 2 -a 0 -i 15 -k RTR
+ -t 2.219768000 -s 2 -d 3 -p cbr -e 1020 -c 2 -a 0 -i 15 -k RTR 
- -t 2.219768000 -s 2 -d 3 -p cbr -e 1020 -c 2 -a 0 -i 15 -k RTR
h -t 2.219768000 -s 2 -d 3 -p cbr -e 1020 -c 2 -a 0 -i 15 -k RTR
r -t 2.229894010 -s 3 -d 3 -p cbr -e 1020 -c 2 -a 0 -i 15 -k AGT
+ -t 2.267497991 -s 5 -d -1 -p AODV -e 44 -c 2 -a 0 -i 0 -k RTR 
- -t 2.267497991 -s 5 -d -1 -p AODV -e 44 -c 2 -a 0 -i 0 -k RTR
h -t 2.267497991 -s 5 -d -1 -p AODV -e 44 -c 2 -a 0 -i 0 -k RTR
r -t 2.268974367 -s 2 -d -1 -p AODV -e 44 -c 2 -a 0 -i 0 -k RTR
r -t 2.268974369 -s 3 -d -1 -p AODV -e 44 -c 2 -a 0 -i 0 -k RTR
r -t 2.268974491 -s 6 -d -1 -p AODV -e 44 -c 2 -a 0 -i 0 -k RTR
+ -t 2.280000000 -s 0 -d -1 -p cbr -e 1000 -c 2 -a 0 -i 16 -k AGT 
- -t 2.280000000 -s 0 -d -1 -p cbr -e 1000 -c 2 -a 0 -i 16 -k AGT
h -t 2.280000000 -s 0 -d -1 -p cbr -e 1000 -c 2 -a 0 -i 16 -k AGT
+ -t 2.280000000 -s 0 -d 1 -p cbr -e 1020 -c 2 -a 0 -i 16 -k RTR 
- -t 2.280000000 -s 0 -d 1 -p cbr -e 1020 -c 2 -a 0 -i 16 -k RTR
h -t 2.280000000 -s 0 -d 1 -p cbr -e 1020 -c 2 -a 0 -i 16 -k RTR
+ -t 2.289742000 -s 1 -d 2 -p cbr -e 1020 -c 2 -a 0 -i 16 -k RTR 
- -t 2.289742000 -s 1 -d 2 -p cbr -e 1020 -c 2 -a 0 -i 16 -k RTR
h -t 2.289742000 -s 1 -d 2 -p cbr -e 1020 -c 2 -a 0 -i 16 -k RTR
+ -t 2.299568000 -s 2 -d 3 -p cbr -e 1020 -c 2 -a 0 -i 16 -k RTR 
- -t 2.299568000 -s 2 -d 3 -p cbr -e 1020 -c 2 -a 0 -i 16 -k RTR
h -t 2.299568000 -s 2 -d 3 -p cbr -e 1020 -c 2 -a 0 -i 16 -k RTR
r -t 2.309334010 -s 3 -d 3 -p cbr -e 1020 -c 2 -a 0 -i 16 -k AGT
+ -t 2.360000000 -s 0 -d -1 -p cbr -e 1000 -c 2 -a 0 -i 17 -k AGT 
- -t 2.360000000 -s 0 -d -1 -p cbr -e 1000 -c 2 -a 0 -i 17 -k AGT
h -t 2.360000000 -s 0 -d -1 -p cbr -e 1000 -c 2 -a 0 -i 17 -k AGT
+ -t 2.360000000 -s 0 -d 1 -p cbr -e 1020 -c 2 -a 0 -i 17 -k RTR 
- -t 2.360000000 -s 0 -d 1 -p cbr -e 1020 -c 2 -a 0 -i 17 -k RTR
h -t 2.360000000 -s 0 -d 1 -p cbr -e 1020 -c 2 -a 0 -i 17 -k RTR
+ -t 2.369442000 -s 1 -d 2 -p cbr -e 1020 -c 2 -a 0 -i 17 -k RTR 
- -t 2.369442000 -s 1 -d 2 -p cbr -e 1020 -c 2 -a 0 -i 17 -k RTR
h -t 2.369442000 -s 1 -d 2 -p cbr -e 1020 -c 2 -a 0 -i 17 -k RTR
+ -t 2.379208000 -s 2 -d 3 -p cbr -e 1020 -c 2 -a 0 -i 17 -k RTR 
- -t 2.379208000 -s 2 -d 3 -p cbr -e 1020 -c 2 -a 0 -i 17 -k RTR
h -t 2.379208000 -s 2 -d 3 -p cbr -e 1020 -c 2 -a 0 -i 17 -k RTR
r -t 2.388934010 -s 3 -d 3 -p cbr -e 1020 -c 2 -a 0 -i 17 -k AGT
+ -t 2.440000000 -s 0 -d -1 -p cbr -e 1000 -c 2 -a 0 -i 18 -k AGT 
- -t 2.440000000 -s 0 -d -1 -p cbr -e 1000 -c 2 -a 0 -i 18 -k AGT
h -t 2.440000000 -s 0 -d -1 -p cbr -e 1000 -c 2 -a 0 -i 18 -k AGT
+ -t 2.440000000 -s 0 -d 1 -p cbr -e 1020 -c 2 -a 0 -i 18 -k RTR 
- -t 2.440000000 -s 0 -d 1 -p cbr -e 1020 -c 2 -a 0 -i 18 -k RTR
h -t 2.440000000 -s 0 -d 1 -p cbr -e 1020 -c 2 -a 0 -i 18 -k RTR
+ -t 2.449682000 -s 1 -d 2 -p cbr -e 1020 -c 2 -a 0 -i 18 -k RTR 
- -t 2.449682000 -s 1 -d 2 -p cbr -e 1020 -c 2 -a 0 -i 18 -k RTR
h -t 2.449682000 -s 1 -d 2 -p cbr -e 1020 -c 2 -a 0 -i 18 -k RTR
+ -t 2.459388000 -s 2 -d 3 -p cbr -e 1020 -c 2 -a 0 -i 18 -k RTR 
- -t 2.459388000 -s 2 -d 3 -p cbr -e 1020 -c 2 -a 0 -i 18 -k RTR
h -t 2.459388000 -s 2 -d 3 -p cbr -e 1020 -c 2 -a 0 -i 18 -k RTR
r -t 2.469414010 -s 3 -d 3 -p cbr -e 1020 -c 2 -a 0 -i 18 -k AGT
+ -t 2.520000000 -s 0 -d -1 -p cbr -e 1000 -c 2 -a 0 -i 19 -k AGT 
- -t 2.520000000 -s 0 -d -1 -p cbr -e 1000 -c 2 -a 0 -i 19 -k AGT
h -t 2.520000000 -s 0 -d -1 -p cbr -e 1000 -c 2 -a 0 -i 19 -k AGT
+ -t 2.520000000 -s 0 -d 1 -p cbr -e 1020 -c 2 -a 0 -i 19 -k RTR 
- -t 2.520000000 -s 0 -d 1 -p cbr -e 1020 -c 2 -a 0 -i 19 -k RTR
h -t 2.520000000 -s 0 -d 1 -p cbr -e 1020 -c 2 -a 0 -i 19 -k RTR
+ -t 2.529742000 -s 1 -d 2 -p cbr -e 1020 -c 2 -a 0 -i 19 -k RTR 
- -t 2.529742000 -s 1 -d 2 -p cbr -e 1020 -c 2 -a 0 -i 19 -k RTR
h -t 2.529742000 -s 1 -d 2 -p cbr -e 1020 -c 2 -a 0 -i 19 -k RTR
+ -t 2.539748000 -s 2 -d 3 -p cbr -e 1020 -c 2 -a 0 -i 19 -k RTR 
- -t 2.539748000 -s 2 -d 3 -p cbr -e 1020 -c 2 -a 0 -i 19 -k RTR
h -t 2.539748000 -s 2 -d 3 -p cbr -e 1020 -c 2 -a 0 -i 19 -k RTR
r -t 2.549774010 -s 3 -d 3 -p cbr -e 1020 -c 2 -a 0 -i 19 -k AGT
+ -t 2.556442659 -s 6 -d -1 -p AODV -e 44 -c 2 -a 0 -i 0 -k RTR 
- -t 2.556442659 -s 6 -d -1 -p AODV -e 44 -c 2 -a 0 -i 0 -k RTR
h -t 2.556442659 -s 6 -d -1 -p AODV -e 44 -c 2 -a 0 -i 0 -k RTR
r -t 2.557359128 -s 3 -d -1 -p AODV -e 44 -c 2 -a 0 -i 0 -k RTR
r -t 2.557359128 -s 2 -d -1 -p AODV -e 44 -c 2 -a 0 -i 0 -k RTR
r -t 2.557359159 -s 5 -d -1 -p AODV -e 44 -c 2 -a 0 -i 0 -k RTR
+ -t 2.600000000 -s 0 -d -1 -p cbr -e 1000 -c 2 -a 0 -i 20 -k AGT 
- -t 2.600000000 -s 0 -d -1 -p cbr -e 1000 -c 2 -a 0 -i 20 -k AGT
h -t 2.600000000 -s 0 -d -1 -p cbr -e 1000 -c 2 -a 0 -i 20 -k AGT
+ -t 2.600000000 -s 0 -d 1 -p cbr -e 1020 -c 2 -a 0 -i 20 -k RTR 
- -t 2.600000000 -s 0 -d 1 -p cbr -e 1020 -c 2 -a 0 -i 20 -k RTR
h -t 2.600000000 -s 0 -d 1 -p cbr -e 1020 -c 2 -a 0 -i 20 -k RTR
+ -t 2.609642000 -s 1 -d 2 -p cbr -e 1020 -c 2 -a 0 -i 20 -k RTR 
- -t 2.609642000 -s 1 -d 2 -p cbr -e 1020 -c 2 -a 0 -i 20 -k RTR
h -t 2.609642000 -s 1 -d 2 -p cbr -e 1020 -c 2 -a 0 -i 20 -k RTR
+ -t 2.619408000 -s 2 -d 3 -p cbr -e 1020 -c 2 -a 0 -i 20 -k RTR 
- -t 2.619408000 -s 2 -d 3 -p cbr -e 1020 -c 2 -a 0 -i 20 -k RTR
h -t 2.619408000 -s 2 -d 3 -p cbr -e 1020 -c 2 -a 0 -i 20 -k RTR
r -t 2.629174010 -s 3 -d 3 -p cbr -e 1020 -c 2 -a 0 -i 20 -k AGT
+ -t 2.680000000 -s 0 -d -1 -p cbr -e 1000 -c 2 -a 0 -i 21 -k AGT 
- -t 2.680000000 -s 0 -d -1 -p cbr -e 1000 -c 2 -a 0 -i 21 -k AGT
h -t 2.680000000 -s 0 -d -1 -p cbr -e 1000 -c 2 -a 0 -i 21 -k AGT
+ -t 2.680000000 -s 0 -d 1 -p cbr -e 1020 -c 2 -a 0 -i 21 -k RTR 
- -t 2.680000000 -s 0 -d 1 -p cbr -e 1020 -c 2 -a 0 -i 21 -k RTR
h -t 2.680000000 -s 0 -d 1 -p cbr -e 1020 -c 2 -a 0 -i 21 -k RTR
+ -t 2.689782000 -s 1 -d 2 -p cbr -e 1020 -c 2 -a 0 -i 21 -k RTR 
- -t 2.689782000 -s 1 -d 2 -p cbr -e 1020 -c 2 -a 0 -i 21 -k RTR
h -t 2.689782000 -s 1 -d 2 -p cbr -e 1020 -c 2 -a 0 -i 21 -k RTR
+ -t 2.699928000 -s 2 -d 3 -p cbr -e 1020 -c 2 -a 0 -i 21 -k RTR 
- -t 2.699928000 -s 2 -d 3 -p cbr -e 1020 -c 2 -a 0 -i 21 -k RTR
h -t 2.699928000 -s 2 -d 3 -p cbr -e 1020 -c 2 -a 0 -i 21 -k RTR
r -t 2.710174010 -s 3 -d 3 -p cbr -e 1020 -c 2 -a 0 -i 21 -k AGT
+ -t 2.735985243 -s 0 -d -1 -p AODV -e 44 -c 2 -a 0 -i 0 -k RTR 
- -t 2.735985243 -s 0 -d -1 -p AODV -e 44 -c 2 -a 0 -i 0 -k RTR
h -t 2.735985243 -s 0 -d -1 -p AODV -e 44 -c 2 -a 0 -i 0 -k RTR