M 0.00000 0 (751.65, 129.94, 0.00), (751.65, 129.94), 9.60
M 1.00000 0 (751.65, 129.94, 0.00), (751.65, 140.34), 10.40
M 1.00000 1 (288.86, 601.65, 0.00), (288.86, 601.65), 20.00
M 2.00000 0 (751.65, 140.34, 0.00), (751.40, 146.98), 6.66
M 2.00000 1 (288.86, 601.65, 0.00), (269.63, 601.65), 19.23
M 2.00000 2 (751.65, 760.88, 0.00), (751.65, 760.88), 20.00
s 2.556838879 _0_ AGT  --- 0 cbr 512 [0 0 0 0] ------- [0:0 1:0 32 0] [0] 0 0
r 2.556838879 _0_ RTR  --- 0 cbr 512 [0 0 0 0] ------- [0:0 1:0 32 0] [0] 0 0
s 2.556838879 _0_ RTR  --- 0 AODV 48 [0 0 0 0] ------- [0:255 -1:255 30 0] [0x2 1 1 [1 0] [0 4]] (REQUEST)
s 2.556953879 _0_ MAC  --- 0 AODV 106 [0 ffffffff 0 800] ------- [0:255 -1:255 30 0] [0x2 1 1 [1 0] [0 4]] (REQUEST)
r 2.557802643 _8_ MAC  --- 0 AODV 48 [0 ffffffff 0 800] ------- [0:255 -1:255 30 0] [0x2 1 1 [1 0] [0 4]] (REQUEST)
r 2.557827643 _8_ RTR  --- 0 AODV 48 [0 ffffffff 0 800] ------- [0:255 -1:255 30 0] [0x2 1 1 [1 0] [0 4]] (REQUEST)
s 2.558708870 _8_ RTR  --- 0 AODV 48 [0 ffffffff 0 800] ------- [8:255 -1:255 29 0] [0x2 2 1 [1 0] [0 4]] (REQUEST)
s 2.559103870 _8_ MAC  --- 0 AODV 106 [0 ffffffff 8 800] ------- [8:255 -1:255 29 0] [0x2 2 1 [1 0] [0 4]] (REQUEST)
r 2.559951993 _25_ MAC  --- 0 AODV 48 [0 ffffffff 8 800] ------- [8:255 -1:255 29 0] [0x2 2 1 [1 0] [0 4]] (REQUEST)
r 2.559952282 _13_ MAC  --- 0 AODV 48 [0 ffffffff 8 800] ------- [8:255 -1:255 29 0] [0x2 2 1 [1 0] [0 4]] (REQUEST)
r 2.559952301 _18_ MAC  --- 0 AODV 48 [0 ffffffff 8 800] ------- [8:255 -1:255 29 0] [0x2 2 1 [1 0] [0 4]] (REQUEST)
r 2.559952593 _24_ MAC  --- 0 AODV 48 [0 ffffffff 8 800] ------- [8:255 -1:255 29 0] [0x2 2 1 [1 0] [0 4]] (REQUEST)
r 2.559952635 _0_ MAC  --- 0 AODV 48 [0 ffffffff 8 800] ------- [8:255 -1:255 29 0] [0x2 2 1 [1 0] [0 4]] (REQUEST)
r 2.559976993 _25_ RTR  --- 0 AODV 48 [0 ffffffff 8 800] ------- [8:255 -1:255 29 0] [0x2 2 1 [1 0] [0 4]] (REQUEST)
r 2.559977282 _13_ RTR  --- 0 AODV 48 [0 ffffffff 8 800] ------- [8:255 -1:255 29 0] [0x2 2 1 [1 0] [0 4]] (REQUEST)
r 2.559977301 _18_ RTR  --- 0 AODV 48 [0 ffffffff 8 800] ------- [8:255 -1:255 29 0] [0x2 2 1 [1 0] [0 4]] (REQUEST)
r 2.559977593 _24_ RTR  --- 0 AODV 48 [0 ffffffff 8 800] ------- [8:255 -1:255 29 0] [0x2 2 1 [1 0] [0 4]] (REQUEST)
r 2.559977635 _0_ RTR  --- 0 AODV 48 [0 ffffffff 8 800] ------- [8:255 -1:255 29 0] [0x2 2 1 [1 0] [0 4]] (REQUEST)
s 2.562323319 _18_ RTR  --- 0 AODV 48 [0 ffffffff 8 800] ------- [18:255 -1:255 28 0] [0x2 3 1 [1 0] [0 4]] (REQUEST)
s 2.562658319 _18_ MAC  --- 0 AODV 106 [0 ffffffff 12 800] ------- [18:255 -1:255 28 0] [0x2 3 1 [1 0] [0 4]] (REQUEST)
s 2.563106610 _25_ RTR  --- 0 AODV 48 [0 ffffffff 8 800] ------- [25:255 -1:255 28 0] [0x2 3 1 [1 0] [0 4]] (REQUEST)
r 2.563506456 _13_ MAC  --- 0 AODV 48 [0 ffffffff 12 800] ------- [18:255 -1:255 28 0] [0x2 3 1 [1 0] [0 4]] (REQUEST)
r 2.563506639 _25_ MAC  --- 0 AODV 48 [0 ffffffff 12 800] ------- [18:255 -1:255 28 0] [0x2 3 1 [1 0] [0 4]] (REQUEST)
r 2.563506673 _24_ MAC  --- 0 AODV 48 [0 ffffffff 12 800] ------- [18:255 -1:255 28 0] [0x2 3 1 [1 0] [0 4]] (REQUEST)
r 2.563506750 _8_ MAC  --- 0 AODV 48 [0 ffffffff 12 800] ------- [18:255 -1:255 28 0] [0x2 3 1 [1 0] [0 4]] (REQUEST)
r 2.563506946 _15_ MAC  --- 0 AODV 48 [0 ffffffff 12 800] ------- [18:255 -1:255 28 0] [0x2 3 1 [1 0] [0 4]] (REQUEST)
r 2.563531456 _13_ RTR  --- 0 AODV 48 [0 ffffffff 12 800] ------- [18:255 -1:255 28 0] [0x2 3 1 [1 0] [0 4]] (REQUEST)
r 2.563531639 _25_ RTR  --- 0 AODV 48 [0 ffffffff 12 800] ------- [18:255 -1:255 28 0] [0x2 3 1 [1 0] [0 4]] (REQUEST)
r 2.563531673 _24_ RTR  --- 0 AODV 48 [0 ffffffff 12 800] ------- [18:255 -1:255 28 0] [0x2 3 1 [1 0] [0 4]] (REQUEST)
r 2.563531750 _8_ RTR  --- 0 AODV 48 [0 ffffffff 12 800] ------- [18:255 -1:255 28 0] [0x2 3 1 [1 0] [0 4]] (REQUEST)
r 2.563531946 _15_ RTR  --- 0 AODV 48 [0 ffffffff 12 800] ------- [18:255 -1:255 28 0] [0x2 3 1 [1 0] [0 4]] (REQUEST)
s 2.563796639 _25_ MAC  --- 0 AODV 106 [0 ffffffff 19 800] ------- [25:255 -1:255 28 0] [0x2 3 1 [1 0] [0 4]] (REQUEST)
s 2.563959892 _15_ RTR  --- 0 AODV 48 [0 ffffffff 12 800] ------- [15:255 -1:255 27 0] [0x2 4 1 [1 0] [0 4]] (REQUEST)
r 2.564644762 _8_ MAC  --- 0 AODV 48 [0 ffffffff 19 800] ------- [25:255 -1:255 28 0] [0x2 3 1 [1 0] [0 4]] (REQUEST)
r 2.564644929 _13_ MAC  --- 0 AODV 48 [0 ffffffff 19 800] ------- [25:255 -1:255 28 0] [0x2 3 1 [1 0] [0 4]] (REQUEST)
r 2.564644960 _18_ MAC  --- 0 AODV 48 [0 ffffffff 19 800] ------- [25:255 -1:255 28 0] [0x2 3 1 [1 0] [0 4]] (REQUEST)
r 2.564645278 _24_ MAC  --- 0 AODV 48 [0 ffffffff 19 800] ------- [25:255 -1:255 28 0] [0x2 3 1 [1 0] [0 4]] (REQUEST)
r 2.564669762 _8_ RTR  --- 0 AODV 48 [0 ffffffff 19 800] ------- [25:255 -1:255 28 0] [0x2 3 1 [1 0] [0 4]] (REQUEST)
r 2.564669929 _13_ RTR  --- 0 AODV 48 [0 ffffffff 19 800] ------- [25:255 -1:255 28 0] [0x2 3 1 [1 0] [0 4]] (REQUEST)
r 2.564669960 _18_ RTR  --- 0 AODV 48 [0 ffffffff 19 800] ------- [25:255 -1:255 28 0] [0x2 3 1 [1 0] [0 4]] (REQUEST)
r 2.564670278 _24_ RTR  --- 0 AODV 48 [0 ffffffff 19 800] ------- [25:255 -1:255 28 0] [0x2 3 1 [1 0] [0 4]] (REQUEST)
s 2.565219474 _15_ MAC  --- 0 AODV 106 [0 ffffffff f 800] ------- [15:255 -1:255 27 0] [0x2 4 1 [1 0] [0 4]] (REQUEST)
r 2.566067802 _24_ MAC  --- 0 AODV 48 [0 ffffffff f 800] ------- [15:255 -1:255 27 0] [0x2 4 1 [1 0] [0 4]] (REQUEST)
r 2.566067853 _17_ MAC  --- 0 AODV 48 [0 ffffffff f 800] ------- [15:255 -1:255 27 0] [0x2 4 1 [1 0] [0 4]] (REQUEST)
r 2.566068102 _18_ MAC  --- 0 AODV 48 [0 ffffffff f 800] ------- [15:255 -1:255 27 0] [0x2 4 1 [1 0] [0 4]] (REQUEST)
r 2.566068201 _14_ MAC  --- 0 AODV 48 [0 ffffffff f 800] ------- [15:255 -1:255 27 0] [0x2 4 1 [1 0] [0 4]] (REQUEST)
r 2.566068239 _13_ MAC  --- 0 AODV 48 [0 ffffffff f 800] ------- [15:255 -1:255 27 0] [0x2 4 1 [1 0] [0 4]] (REQUEST)
r 2.566092802 _24_ RTR  --- 0 AODV 48 [0 ffffffff f 800] ------- [15:255 -1:255 27 0] [0x2 4 1 [1 0] [0 4]] (REQUEST)
r 2.566092853 _17_ RTR  --- 0 AODV 48 [0 ffffffff f 800] ------- [15:255 -1:255 27 0] [0x2 4 1 [1 0] [0 4]] (REQUEST)
r 2.566093102 _18_ RTR  --- 0 AODV 48 [0 ffffffff f 800] ------- [15:255 -1:255 27 0] [0x2 4 1 [1 0] [0 4]] (REQUEST)
r 2.566093201 _14_ RTR  --- 0 AODV 48 [0 ffffffff f 800] ------- [15:255 -1:255 27 0] [0x2 4 1 [1 0] [0 4]] (REQUEST)
r 2.566093239 _13_ RTR  --- 0 AODV 48 [0 ffffffff f 800] ------- [15:255 -1:255 27 0] [0x2 4 1 [1 0] [0 4]] (REQUEST)
s 2.566366245 _24_ RTR  --- 0 AODV 48 [0 ffffffff 8 800] ------- [24:255 -1:255 28 0] [0x2 3 1 [1 0] [0 4]] (REQUEST)
s 2.566781245 _24_ MAC  --- 0 AODV 106 [0 ffffffff 18 800] ------- [24:255 -1:255 28 0] [0x2 3 1 [1 0] [0 4]] (REQUEST)
r 2.567629572 _15_ MAC  --- 0 AODV 48 [0 ffffffff 18 800] ------- [24:255 -1:255 28 0] [0x2 3 1 [1 0] [0 4]] (REQUEST)
r 2.567629599 _18_ MAC  --- 0 AODV 48 [0 ffffffff 18 800] ------- [24:255 -1:255 28 0] [0x2 3 1 [1 0] [0 4]] (REQUEST)
r 2.567629726 _13_ MAC  --- 0 AODV 48 [0 ffffffff 18 800] ------- [24:255 -1:255 28 0] [0x2 3 1 [1 0] [0 4]] (REQUEST)
r 2.567629883 _25_ MAC  --- 0 AODV 48 [0 ffffffff 18 800] ------- [24:255 -1:255 28 0] [0x2 3 1 [1 0] [0 4]] (REQUEST)
r 2.567629935 _17_ MAC  --- 0 AODV 48 [0 ffffffff 18 800] ------- [24:255 -1:255 28 0] [0x2 3 1 [1 0] [0 4]] (REQUEST)
r 2.567629968 _8_ MAC  --- 0 AODV 48 [0 ffffffff 18 800] ------- [24:255 -1:255 28 0] [0x2 3 1 [1 0] [0 4]] (REQUEST)
r 2.567654572 _15_ RTR  --- 0 AODV 48 [0 ffffffff 18 800] ------- [24:255 -1:255 28 0] [0x2 3 1 [1 0] [0 4]] (REQUEST)
r 2.567654599 _18_ RTR  --- 0 AODV 48 [0 ffffffff 18 800] ------- [24:255 -1:255 28 0] [0x2 3 1 [1 0] [0 4]] (REQUEST)
r 2.567654726 _13_ RTR  --- 0 AODV 48 [0 ffffffff 18 800] ------- [24:255 -1:255 28 0] [0x2 3 1 [1 0] [0 4]] (REQUEST)
r 2.567654883 _25_ RTR  --- 0 AODV 48 [0 ffffffff 18 800] ------- [24:255 -1:255 28 0] [0x2 3 1 [1 0] [0 4]] (REQUEST)
r 2.567654935 _17_ RTR  --- 0 AODV 48 [0 ffffffff 18 800] ------- [24:255 -1:255 28 0] [0x2 3 1 [1 0] [0 4]] (REQUEST)
r 2.567654968 _8_ RTR  --- 0 AODV 48 [0 ffffffff 18 800] ------- [24:255 -1:255 28 0] [0x2 3 1 [1 0] [0 4]] (REQUEST)
s 2.567841254 _14_ RTR  --- 0 AODV 48 [0 ffffffff f 800] ------- [14:255 -1:255 26 0] [0x2 5 1 [1 0] [0 4]] (REQUEST)
s 2.568142042 _13_ RTR  --- 0 AODV 48 [0 ffffffff 8 800] ------- [13:255 -1:255 28 0] [0x2 3 1 [1 0] [0 4]] (REQUEST)
s 2.568244144 _14_ MAC  --- 0 AODV 106 [0 ffffffff e 800] ------- [14:255 -1:255 26 0] [0x2 5 1 [1 0] [0 4]] (REQUEST)
r 2.569092585 _12_ MAC  --- 0 AODV 48 [0 ffffffff e 800] ------- [14:255 -1:255 26 0] [0x2 5 1 [1 0] [0 4]] (REQUEST)
r 2.569092673 _17_ MAC  --- 0 AODV 48 [0 ffffffff e 800] ------- [14:255 -1:255 26 0] [0x2 5 1 [1 0] [0 4]] (REQUEST)
r 2.569092741 _19_ MAC  --- 0 AODV 48 [0 ffffffff e 800] ------- [14:255 -1:255 26 0] [0x2 5 1 [1 0] [0 4]] (REQUEST)
r 2.569092750 _7_ MAC  --- 0 AODV 48 [0 ffffffff e 800] ------- [14:255 -1:255 26 0] [0x2 5 1 [1 0] [0 4]] (REQUEST)
r 2.569092843 _1_ MAC  --- 0 AODV 48 [0 ffffffff e 800] ------- [14:255 -1:255 26 0] [0x2 5 1 [1 0] [0 4]] (REQUEST)
r 2.569092871 _15_ MAC  --- 0 AODV 48 [0 ffffffff e 800] ------- [14:255 -1:255 26 0] [0x2 5 1 [1 0] [0 4]] (REQUEST)
r 2.569092901 _27_ MAC  --- 0 AODV 48 [0 ffffffff e 800] ------- [14:255 -1:255 26 0] [0x2 5 1 [1 0] [0 4]] (REQUEST)
r 2.569092925 _6_ MAC  --- 0 AODV 48 [0 ffffffff e 800] ------- [14:255 -1:255 26 0] [0x2 5 1 [1 0] [0 4]] (REQUEST)
r 2.569117585 _12_ RTR  --- 0 AODV 48 [0 ffffffff e 800] ------- [14:255 -1:255 26 0] [0x2 5 1 [1 0] [0 4]] (REQUEST)
r 2.569117673 _17_ RTR  --- 0 AODV 48 [0 ffffffff e 800] ------- [14:255 -1:255 26 0] [0x2 5 1 [1 0] [0 4]] (REQUEST)
r 2.569117741 _19_ RTR  --- 0 AODV 48 [0 ffffffff e 800] ------- [14:255 -1:255 26 0] [0x2 5 1 [1 0] [0 4]] (REQUEST)
r 2.569117750 _7_ RTR  --- 0 AODV 48 [0 ffffffff e 800] ------- [14:255 -1:255 26 0] [0x2 5 1 [1 0] [0 4]] (REQUEST)
r 2.569117843 _1_ RTR  --- 0 AODV 48 [0 ffffffff e 800] ------- [14:255 -1:255 26 0] [0x2 5 1 [1 0] [0 4]] (REQUEST)
s 2.569117843 _1_ RTR  --- 0 AODV 44 [0 0 0 0] ------- [1:255 0:255 30 14] [0x4 1 [1 4] 10.000000] (REPLY)
r 2.569117871 _15_ RTR  --- 0 AODV 48 [0 ffffffff e 800] ------- [14:255 -1:255 26 0] [0x2 5 1 [1 0] [0 4]] (REQUEST)
r 2.569117901 _27_ RTR  --- 0 AODV 48 [0 ffffffff e 800] ------- [14:255 -1:255 26 0] [0x2 5 1 [1 0] [0 4]] (REQUEST)
r 2.569117925 _6_ RTR  --- 0 AODV 48 [0 ffffffff e 800] ------- [14:255 -1:255 26 0] [0x2 5 1 [1 0] [0 4]] (REQUEST)
s 2.569707519 _13_ MAC  --- 0 AODV 106 [0 ffffffff d 800] ------- [13:255 -1:255 28 0] [0x2 3 1 [1 0] [0 4]] (REQUEST)
s 2.569712843 _1_ MAC  --- 0 ARP 86 [0 ffffffff 1 806] ------- [REQUEST 1/1 0/14]
D 2.569713541 _14_ MAC  COL 0 ARP 86 [0 ffffffff 1 806] ------- [REQUEST 1/1 0/14]
s 2.570329420 _17_ RTR  --- 0 AODV 48 [0 ffffffff f 800] ------- [17:255 -1:255 26 0] [0x2 5 1 [1 0] [0 4]] (REQUEST)
r 2.570400943 _27_ MAC  --- 0 ARP 28 [0 ffffffff 1 806] ------- [REQUEST 1/1 0/14]
r 2.570401470 _11_ MAC  --- 0 ARP 28 [0 ffffffff 1 806] ------- [REQUEST 1/1 0/14]
r 2.570555656 _18_ MAC  --- 0 AODV 48 [0 ffffffff d 800] ------- [13:255 -1:255 28 0] [0x2 3 1 [1 0] [0 4]] (REQUEST)
r 2.570555808 _25_ MAC  --- 0 AODV 48 [0 ffffffff d 800] ------- [13:255 -1:255 28 0] [0x2 3 1 [1 0] [0 4]] (REQUEST)
r 2.570555931 _8_ MAC  --- 0 AODV 48 [0 ffffffff d 800] ------- [13:255 -1:255 28 0] [0x2 3 1 [1 0] [0 4]] (REQUEST)
r 2.570556000 _24_ MAC  --- 0 AODV 48 [0 ffffffff d 800] ------- [13:255 -1:255 28 0] [0x2 3 1 [1 0] [0 4]] (REQUEST)
D 2.570556283 _15_ MAC  COL 0 AODV 106 [0 ffffffff d 800] ------- [13:255 -1:255 28 0] [0x2 3 1 [1 0] [0 4]] (REQUEST)
r 2.570580656 _18_ RTR  --- 0 AODV 48 [0 ffffffff d 800] ------- [13:255 -1:255 28 0] [0x2 3 1 [1 0] [0 4]] (REQUEST)
r 2.570580808 _25_ RTR  --- 0 AODV 48 [0 ffffffff d 800] ------- [13:255 -1:255 28 0] [0x2 3 1 [1 0] [0 4]] (REQUEST)
r 2.570580931 _8_ RTR  --- 0 AODV 48 [0 ffffffff d 800] ------- [13:255 -1:255 28 0] [0x2 3 1 [1 0] [0 4]] (REQUEST)
r 2.570581000 _24_ RTR  --- 0 AODV 48 [0 ffffffff d 800] ------- [13:255 -1:255 28 0] [0x2 3 1 [1 0] [0 4]] (REQUEST)
s 2.571330661 _17_ MAC  --- 0 AODV 106 [0 ffffffff 11 800] ------- [17:255 -1:255 26 0] [0x2 5 1 [1 0] [0 4]] (REQUEST)
r 2.572179040 _15_ MAC  --- 0 AODV 48 [0 ffffffff 11 800] ------- [17:255 -1:255 26 0] [0x2 5 1 [1 0] [0 4]] (REQUEST)
r 2.572179191 _14_ MAC  --- 0 AODV 48 [0 ffffffff 11 800] ------- [17:255 -1:255 26 0] [0x2 5 1 [1 0] [0 4]] (REQUEST)
r 2.572179291 _26_ MAC  --- 0 AODV 48 [0 ffffffff 11 800] ------- [17:255 -1:255 26 0] [0x2 5 1 [1 0] [0 4]] (REQUEST)
r 2.572179352 _24_ MAC  --- 0 AODV 48 [0 ffffffff 11 800] ------- [17:255 -1:255 26 0] [0x2 5 1 [1 0] [0 4]] (REQUEST)
r 2.572179486 _11_ MAC  --- 0 AODV 48 [0 ffffffff 11 800] ------- [17:255 -1:255 26 0] [0x2 5 1 [1 0] [0 4]] (REQUEST)
r 2.572204040 _15_ RTR  --- 0 AODV 48 [0 ffffffff 11 800] ------- [17:255 -1:255 26 0] [0x2 5 1 [1 0] [0 4]] (REQUEST)
r 2.572204191 _14_ RTR  --- 0 AODV 48 [0 ffffffff 11 800] ------- [17:255 -1:255 26 0] [0x2 5 1 [1 0] [0 4]] (REQUEST)
r 2.572204291 _26_ RTR  --- 0 AODV 48 [0 ffffffff 11 800] ------- [17:255 -1:255 26 0] [0x2 5 1 [1 0] [0 4]] (REQUEST)
r 2.572204352 _24_ RTR  --- 0 AODV 48 [0 ffffffff 11 800] ------- [17:255 -1:255 26 0] [0x2 5 1 [1 0] [0 4]] (REQUEST)
r 2.572204486 _11_ RTR  --- 0 AODV 48 [0 ffffffff 11 800] ------- [17:255 -1:255 26 0] [0x2 5 1 [1 0] [0 4]] (REQUEST)
s 2.573778900 _19_ RTR  --- 0 AODV 48 [0 ffffffff e 800] ------- [19:255 -1:255 25 0] [0x2 6 1 [1 0] [0 4]] (REQUEST)
s 2.574133900 _19_ MAC  --- 0 AODV 106 [0 ffffffff 13 800] ------- [19:255 -1:255 25 0] [0x2 6 1 [1 0] [0 4]] (REQUEST)
s 2.574304073 _12_ RTR  --- 0 AODV 48 [0 ffffffff e 800] ------- [12:255 -1:255 25 0] [0x2 6 1 [1 0] [0 4]] (REQUEST)
r 2.574981911 _7_ MAC  --- 0 AODV 48 [0 ffffffff 13 800] ------- [19:255 -1:255 25 0] [0x2 6 1 [1 0] [0 4]] (REQUEST)
r 2.574982107 _12_ MAC  --- 0 AODV 48 [0 ffffffff 13 800] ------- [19:255 -1:255 25 0] [0x2 6 1 [1 0] [0 4]] (REQUEST)
r 2.574982205 _6_ MAC  --- 0 AODV 48 [0 ffffffff 13 800] ------- [19:255 -1:255 25 0] [0x2 6 1 [1 0] [0 4]] (REQUEST)
r 2.574982426 _21_ MAC  --- 0 AODV 48 [0 ffffffff 13 800] ------- [19:255 -1:255 25 0] [0x2 6 1 [1 0] [0 4]] (REQUEST)
r 2.574982498 _14_ MAC  --- 0 AODV 48 [0 ffffffff 13 800] ------- [19:255 -1:255 25 0] [0x2 6 1 [1 0] [0 4]] (REQUEST)
r 2.575006911 _7_ RTR  --- 0 AODV 48 [0 ffffffff 13 800] ------- [19:255 -1:255 25 0] [0x2 6 1 [1 0] [0 4]] (REQUEST)
r 2.575007107 _12_ RTR  --- 0 AODV 48 [0 ffffffff 13 800] ------- [19:255 -1:255 25 0] [0x2 6 1 [1 0] [0 4]] (REQUEST)
r 2.575007205 _6_ RTR  --- 0 AODV 48 [0 ffffffff 13 800] ------- [19:255 -1:255 25 0] [0x2 6 1 [1 0] [0 4]] (REQUEST)
r 2.575007426 _21_ RTR  --- 0 AODV 48 [0 ffffffff 13 800] ------- [19:255 -1:255 25 0] [0x2 6 1 [1 0] [0 4]] (REQUEST)
r 2.575007498 _14_ RTR  --- 0 AODV 48 [0 ffffffff 13 800] ------- [19:255 -1:255 25 0] [0x2 6 1 [1 0] [0 4]] (REQUEST)
s 2.575232107 _12_ MAC  --- 0 AODV 106 [0 ffffffff c 800] ------- [12:255 -1:255 25 0] [0x2 6 1 [1 0] [0 4]] (REQUEST)
s 2.576040819 _7_ RTR  --- 0 AODV 48 [0 ffffffff e 800] ------- [7:255 -1:255 25 0] [0x2 6 1 [1 0] [0 4]] (REQUEST)
r 2.576080313 _19_ MAC  --- 0 AODV 48 [0 ffffffff c 800] ------- [12:255 -1:255 25 0] [0x2 6 1 [1 0] [0 4]] (REQUEST)
r 2.576080324 _7_ MAC  --- 0 AODV 48 [0 ffffffff c 800] ------- [12:255 -1:255 25 0] [0x2 6 1 [1 0] [0 4]] (REQUEST)
r 2.576080451 _6_ MAC  --- 0 AODV 48 [0 ffffffff c 800] ------- [12:255 -1:255 25 0] [0x2 6 1 [1 0] [0 4]] (REQUEST)
r 2.576080548 _14_ MAC  --- 0 AODV 48 [0 ffffffff c 800] ------- [12:255 -1:255 25 0] [0x2 6 1 [1 0] [0 4]] (REQUEST)
r 2.576080828 _21_ MAC  --- 0 AODV 48 [0 ffffffff c 800] ------- [12:255 -1:255 25 0] [0x2 6 1 [1 0] [0 4]] (REQUEST)
r 2.576105313 _19_ RTR  --- 0 AODV 48 [0 ffffffff c 800] ------- [12:255 -1:255 25 0] [0x2 6 1 [1 0] [0 4]] (REQUEST)
r 2.576105324 _7_ RTR  --- 0 AODV 48 [0 ffffffff c 800] ------- [12:255 -1:255 25 0] [0x2 6 1 [1 0] [0 4]] (REQUEST)
r 2.576105451 _6_ RTR  --- 0 AODV 48 [0 ffffffff c 800] ------- [12:255 -1:255 25 0] [0x2 6 1 [1 0] [0 4]] (REQUEST)
r 2.576105548 _14_ RTR  --- 0 AODV 48 [0 ffffffff c 800] ------- [12:255 -1:255 25 0] [0x2 6 1 [1 0] [0 4]] (REQUEST)
r 2.576105828 _21_ RTR  --- 0 AODV 48 [0 ffffffff c 800] ------- [12:255 -1:255 25 0] [0x2 6 1 [1 0] [0 4]] (REQUEST)
s 2.576259676 _11_ RTR  --- 0 AODV 48 [0 ffffffff 11 800] ------- [11:255 -1:255 25 0] [0x2 6 1 [1 0] [0 4]] (REQUEST)
s 2.576350324 _7_ MAC  --- 0 AODV 106 [0 ffffffff 7 800] ------- [7:255 -1:255 25 0] [0x2 6 1 [1 0] [0 4]] (REQUEST)
r 2.577198334 _19_ MAC  --- 0 AODV 48 [0 ffffffff 7 800] ------- [7:255 -1:255 25 0] [0x2 6 1 [1 0] [0 4]] (REQUEST)
r 2.577198541 _12_ MAC  --- 0 AODV 48 [0 ffffffff 7 800] ------- [7:255 -1:255 25 0] [0x2 6 1 [1 0] [0 4]] (REQUEST)
r 2.577198630 _6_ MAC  --- 0 AODV 48 [0 ffffffff 7 800] ------- [7:255 -1:255 25 0] [0x2 6 1 [1 0] [0 4]] (REQUEST)
r 2.577198840 _21_ MAC  --- 0 AODV 48 [0 ffffffff 7 800] ------- [7:255 -1:255 25 0] [0x2 6 1 [1 0] [0 4]] (REQUEST)
r 2.577198930 _14_ MAC  --- 0 AODV 48 [0 ffffffff 7 800] ------- [7:255 -1:255 25 0] [0x2 6 1 [1 0] [0 4]] (REQUEST)
r 2.577223334 _19_ RTR  --- 0 AODV 48 [0 ffffffff 7 800] ------- [7:255 -1:255 25 0] [0x2 6 1 [1 0] [0 4]] (REQUEST)
r 2.577223541 _12_ RTR  --- 0 AODV 48 [0 ffffffff 7 800] ------- [7:255 -1:255 25 0] [0x2 6 1 [1 0] [0 4]] (REQUEST)
r 2.577223630 _6_ RTR  --- 0 AODV 48 [0 ffffffff 7 800] ------- [7:255 -1:255 25 0] [0x2 6 1 [1 0] [0 4]] (REQUEST)
r 2.577223840 _21_ RTR  --- 0 AODV 48 [0 ffffffff 7 800] ------- [7:255 -1:255 25 0] [0x2 6 1 [1 0] [0 4]] (REQUEST)
r 2.577223930 _14_ RTR  --- 0 AODV 48 [0 ffffffff 7 800] ------- [7:255 -1:255 25 0] [0x2 6 1 [1 0] [0 4]] (REQUEST)
s 2.577516177 _6_ RTR  --- 0 AODV 48 [0 ffffffff e 800] ------- [6:255 -1:255 25 0] [0x2 6 1 [1 0] [0 4]] (REQUEST)
s 2.577711177 _6_ MAC  --- 0 AODV 106 [0 ffffffff 6 800] ------- [6:255 -1:255 25 0] [0x2 6 1 [1 0] [0 4]] (REQUEST)
s 2.577738574 _27_ RTR  --- 0 AODV 48 [0 ffffffff e 800] ------- [27:255 -1:255 25 0] [0x2 6 1 [1 0] [0 4]] (REQUEST)
r 2.578559481 _19_ MAC  --- 0 AODV 48 [0 ffffffff 6 800] ------- [6:255 -1:255 25 0] [0x2 6 1 [1 0] [0 4]] (REQUEST)
r 2.578559483 _7_ MAC  --- 0 AODV 48 [0 ffffffff 6 800] ------- [6:255 -1:255 25 0] [0x2 6 1 [1 0] [0 4]] (REQUEST)
r 2.578559521 _12_ MAC  --- 0 AODV 48 [0 ffffffff 6 800] ------- [6:255 -1:255 25 0] [0x2 6 1 [1 0] [0 4]] (REQUEST)
r 2.578559903 _21_ MAC  --- 0 AODV 48 [0 ffffffff 6 800] ------- [6:255 -1:255 25 0] [0x2 6 1 [1 0] [0 4]] (REQUEST)
r 2.578559957 _14_ MAC  --- 0 AODV 48 [0 ffffffff 6 800] ------- [6:255 -1:255 25 0] [0x2 6 1 [1 0] [0 4]] (REQUEST)
r 2.578584481 _19_ RTR  --- 0 AODV 48 [0 ffffffff 6 800] ------- [6:255 -1:255 25 0] [0x2 6 1 [1 0] [0 4]] (REQUEST)
r 2.578584483 _7_ RTR  --- 0 AODV 48 [0 ffffffff 6 800] ------- [6:255 -1:255 25 0] [0x2 6 1 [1 0] [0 4]] (REQUEST)
r 2.578584521 _12_ RTR  --- 0 AODV 48 [0 ffffffff 6 800] ------- [6:255 -1:255 25 0] [0x2 6 1 [1 0] [0 4]] (REQUEST)
r 2.578584903 _21_ RTR  --- 0 AODV 48 [0 ffffffff 6 800] ------- [6:255 -1:255 25 0] [0x2 6 1 [1 0] [0 4]] (REQUEST)
r 2.578584957 _14_ RTR  --- 0 AODV 48 [0 ffffffff 6 800] ------- [6:255 -1:255 25 0] [0x2 6 1 [1 0] [0 4]] (REQUEST)
s 2.579314631 _27_ MAC  --- 0 AODV 106 [0 ffffffff 1b 800] ------- [27:255 -1:255 25 0] [0x2 6 1 [1 0] [0 4]] (REQUEST)
r 2.580162731 _1_ MAC  --- 0 AODV 48 [0 ffffffff 1b 800] ------- [27:255 -1:255 25 0] [0x2 6 1 [1 0] [0 4]] (REQUEST)
r 2.580163183 _11_ MAC  --- 0 AODV 48 [0 ffffffff 1b 800] ------- [27:255 -1:255 25 0] [0x2 6 1 [1 0] [0 4]] (REQUEST)
r 2.580163387 _14_ MAC  --- 0 AODV 48 [0 ffffffff 1b 800] ------- [27:255 -1:255 25 0] [0x2 6 1 [1 0] [0 4]] (REQUEST)
r 2.580163417 _16_ MAC  --- 0 AODV 48 [0 ffffffff 1b 800] ------- [27:255 -1:255 25 0] [0x2 6 1 [1 0] [0 4]] (REQUEST)
r 2.580187731 _1_ RTR  --- 0 AODV 48 [0 ffffffff 1b 800] ------- [27:255 -1:255 25 0] [0x2 6 1 [1 0] [0 4]] (REQUEST)
r 2.580188183 _11_ RTR  --- 0 AODV 48 [0 ffffffff 1b 800] ------- [27:255 -1:255 25 0] [0x2 6 1 [1 0] [0 4]] (REQUEST)
r 2.580188387 _14_ RTR  --- 0 AODV 48 [0 ffffffff 1b 800] ------- [27:255 -1:255 25 0] [0x2 6 1 [1 0] [0 4]] (REQUEST)
r 2.580188417 _16_ RTR  --- 0 AODV 48 [0 ffffffff 1b 800] ------- [27:255 -1:255 25 0] [0x2 6 1 [1 0] [0 4]] (REQUEST)
s 2.580373183 _11_ MAC  --- 0 AODV 106 [0 ffffffff b 800] ------- [11:255 -1:255 25 0] [0x2 6 1 [1 0] [0 4]] (REQUEST)
r 2.581221736 _27_ MAC  --- 0 AODV 48 [0 ffffffff b 800] ------- [11:255 -1:255 25 0] [0x2 6 1 [1 0] [0 4]] (REQUEST)
r 2.581221811 _1_ MAC  --- 0 AODV 48 [0 ffffffff b 800] ------- [11:255 -1:255 25 0] [0x2 6 1 [1 0] [0 4]] (REQUEST)
r 2.581221865 _16_ MAC  --- 0 AODV 48 [0 ffffffff b 800] ------- [11:255 -1:255 25 0] [0x2 6 1 [1 0] [0 4]] (REQUEST)
r 2.581221872 _26_ MAC  --- 0 AODV 48 [0 ffffffff b 800] ------- [11:255 -1:255 25 0] [0x2 6 1 [1 0] [0 4]] (REQUEST)
r 2.581222007 _17_ MAC  --- 0 AODV 48 [0 ffffffff b 800] ------- [11:255 -1:255 25 0] [0x2 6 1 [1 0] [0 4]] (REQUEST)
r 2.581246736 _27_ RTR  --- 0 AODV 48 [0 ffffffff b 800] ------- [11:255 -1:255 25 0] [0x2 6 1 [1 0] [0 4]] (REQUEST)
r 2.581246811 _1_ RTR  --- 0 AODV 48 [0 ffffffff b 800] ------- [11:255 -1:255 25 0] [0x2 6 1 [1 0] [0 4]] (REQUEST)
r 2.581246865 _16_ RTR  --- 0 AODV 48 [0 ffffffff b 800] ------- [11:255 -1:255 25 0] [0x2 6 1 [1 0] [0 4]] (REQUEST)
r 2.581246872 _26_ RTR  --- 0 AODV 48 [0 ffffffff b 800] ------- [11:255 -1:255 25 0] [0x2 6 1 [1 0] [0 4]] (REQUEST)
r 2.581247007 _17_ RTR  --- 0 AODV 48 [0 ffffffff b 800] ------- [11:255 -1:255 25 0] [0x2 6 1 [1 0] [0 4]] (REQUEST)
s 2.581253745 _26_ RTR  --- 0 AODV 48 [0 ffffffff 11 800] ------- [26:255 -1:255 25 0] [0x2 6 1 [1 0] [0 4]] (REQUEST)
s 2.581808745 _26_ MAC  --- 0 AODV 106 [0 ffffffff 1a 800] ------- [26:255 -1:255 25 0] [0x2 6 1 [1 0] [0 4]] (REQUEST)
r 2.582657244 _5_ MAC  --- 0 AODV 48 [0 ffffffff 1a 800] ------- [26:255 -1:255 25 0] [0x2 6 1 [1 0] [0 4]] (REQUEST)
r 2.582657375 _17_ MAC  --- 0 AODV 48 [0 ffffffff 1a 800] ------- [26:255 -1:255 25 0] [0x2 6 1 [1 0] [0 4]] (REQUEST)
r 2.582657435 _11_ MAC  --- 0 AODV 48 [0 ffffffff 1a 800] ------- [26:255 -1:255 25 0] [0x2 6 1 [1 0] [0 4]] (REQUEST)
r 2.582682244 _5_ RTR  --- 0 AODV 48 [0 ffffffff 1a 800] ------- [26:255 -1:255 25 0] [0x2 6 1 [1 0] [0 4]] (REQUEST)
r 2.582682375 _17_ RTR  --- 0 AODV 48 [0 ffffffff 1a 800] ------- [26:255 -1:255 25 0] [0x2 6 1 [1 0] [0 4]] (REQUEST)
r 2.582682435 _11_ RTR  --- 0 AODV 48 [0 ffffffff 1a 800] ------- [26:255 -1:255 25 0] [0x2 6 1 [1 0] [0 4]] (REQUEST)
s 2.583881861 _21_ RTR  --- 0 AODV 48 [0 ffffffff 13 800] ------- [21:255 -1:255 24 0] [0x2 7 1 [1 0] [0 4]] (REQUEST)
s 2.584276861 _21_ MAC  --- 0 AODV 106 [0 ffffffff 15 800] ------- [21:255 -1:255 24 0] [0x2 7 1 [1 0] [0 4]] (REQUEST)
r 2.585125377 _7_ MAC  --- 0 AODV 48 [0 ffffffff 15 800] ------- [21:255 -1:255 24 0] [0x2 7 1 [1 0] [0 4]] (REQUEST)
r 2.585125386 _19_ MAC  --- 0 AODV 48 [0 ffffffff 15 800] ------- [21:255 -1:255 24 0] [0x2 7 1 [1 0] [0 4]] (REQUEST)
r 2.585125582 _12_ MAC  --- 0 AODV 48 [0 ffffffff 15 800] ------- [21:255 -1:255 24 0] [0x2 7 1 [1 0] [0 4]] (REQUEST)
r 2.585125588 _6_ MAC  --- 0 AODV 48 [0 ffffffff 15 800] ------- [21:255 -1:255 24 0] [0x2 7 1 [1 0] [0 4]] (REQUEST)
r 2.585150377 _7_ RTR  --- 0 AODV 48 [0 ffffffff 15 800] ------- [21:255 -1:255 24 0] [0x2 7 1 [1 0] [0 4]] (REQUEST)
r 2.585150386 _19_ RTR  --- 0 AODV 48 [0 ffffffff 15 800] ------- [21:255 -1:255 24 0] [0x2 7 1 [1 0] [0 4]] (REQUEST)
r 2.585150582 _12_ RTR  --- 0 AODV 48 [0 ffffffff 15 800] ------- [21:255 -1:255 24 0] [0x2 7 1 [1 0] [0 4]] (REQUEST)
r 2.585150588 _6_ RTR  --- 0 AODV 48 [0 ffffffff 15 800] ------- [21:255 -1:255 24 0] [0x2 7 1 [1 0] [0 4]] (REQUEST)
s 2.586874656 _16_ RTR  --- 0 AODV 48 [0 ffffffff 1b 800] ------- [16:255 -1:255 24 0] [0x2 7 1 [1 0] [0 4]] (REQUEST)
s 2.587169656 _16_ MAC  --- 0 AODV 106 [0 ffffffff 10 800] ------- [16:255 -1:255 24 0] [0x2 7 1 [1 0] [0 4]] (REQUEST)
r 2.588018185 _29_ MAC  --- 0 AODV 48 [0 ffffffff 10 800] ------- [16:255 -1:255 24 0] [0x2 7 1 [1 0] [0 4]] (REQUEST)
r 2.588018338 _11_ MAC  --- 0 AODV 48 [0 ffffffff 10 800] ------- [16:255 -1:255 24 0] [0x2 7 1 [1 0] [0 4]] (REQUEST)
r 2.588018443 _27_ MAC  --- 0 AODV 48 [0 ffffffff 10 800] ------- [16:255 -1:255 24 0] [0x2 7 1 [1 0] [0 4]] (REQUEST)
r 2.588043185 _29_ RTR  --- 0 AODV 48 [0 ffffffff 10 800] ------- [16:255 -1:255 24 0] [0x2 7 1 [1 0] [0 4]] (REQUEST)
r 2.588043338 _11_ RTR  --- 0 AODV 48 [0 ffffffff 10 800] ------- [16:255 -1:255 24 0] [0x2 7 1 [1 0] [0 4]] (REQUEST)
r 2.588043443 _27_ RTR  --- 0 AODV 48 [0 ffffffff 10 800] ------- [16:255 -1:255 24 0] [0x2 7 1 [1 0] [0 4]] (REQUEST)
s 2.591316355 _29_ RTR  --- 0 AODV 48 [0 ffffffff 10 800] ------- [29:255 -1:255 23 0] [0x2 8 1 [1 0] [0 4]] (REQUEST)
s 2.591391355 _29_ MAC  --- 0 AODV 106 [0 ffffffff 1d 800] ------- [29:255 -1:255 23 0] [0x2 8 1 [1 0] [0 4]] (REQUEST)
s 2.591448801 _5_ RTR  --- 0 AODV 48 [0 ffffffff 1a 800] ------- [5:255 -1:255 24 0] [0x2 7 1 [1 0] [0 4]] (REQUEST)
r 2.592239883 _16_ MAC  --- 0 AODV 48 [0 ffffffff 1d 800] ------- [29:255 -1:255 23 0] [0x2 8 1 [1 0] [0 4]] (REQUEST)
r 2.592240090 _23_ MAC  --- 0 AODV 48 [0 ffffffff 1d 800] ------- [29:255 -1:255 23 0] [0x2 8 1 [1 0] [0 4]] (REQUEST)
r 2.592240094 _2_ MAC  --- 0 AODV 48 [0 ffffffff 1d 800] ------- [29:255 -1:255 23 0] [0x2 8 1 [1 0] [0 4]] (REQUEST)
r 2.592240114 _22_ MAC  --- 0 AODV 48 [0 ffffffff 1d 800] ------- [29:255 -1:255 23 0] [0x2 8 1 [1 0] [0 4]] (REQUEST)
r 2.592240159 _10_ MAC  --- 0 AODV 48 [0 ffffffff 1d 800] ------- [29:255 -1:255 23 0] [0x2 8 1 [1 0] [0 4]] (REQUEST)
r 2.592264883 _16_ RTR  --- 0 AODV 48 [0 ffffffff 1d 800] ------- [29:255 -1:255 23 0] [0x2 8 1 [1 0] [0 4]] (REQUEST)
r 2.592265090 _23_ RTR  --- 0 AODV 48 [0 ffffffff 1d 800] ------- [29:255 -1:255 23 0] [0x2 8 1 [1 0] [0 4]] (REQUEST)
r 2.592265094 _2_ RTR  --- 0 AODV 48 [0 ffffffff 1d 800] ------- [29:255 -1:255 23 0] [0x2 8 1 [1 0] [0 4]] (REQUEST)
r 2.592265114 _22_ RTR  --- 0 AODV 48 [0 ffffffff 1d 800] ------- [29:255 -1:255 23 0] [0x2 8 1 [1 0] [0 4]] (REQUEST)
r 2.592265159 _10_ RTR  --- 0 AODV 48 [0 ffffffff 1d 800] ------- [29:255 -1:255 23 0] [0x2 8 1 [1 0] [0 4]] (REQUEST)
s 2.592894975 _5_ MAC  --- 0 AODV 106 [0 ffffffff 5 800] ------- [5:255 -1:255 24 0] [0x2 7 1 [1 0] [0 4]] (REQUEST)
r 2.593743473 _26_ MAC  --- 0 AODV 48 [0 ffffffff 5 800] ------- [5:255 -1:255 24 0] [0x2 7 1 [1 0] [0 4]] (REQUEST)
r 2.593743517 _4_ MAC  --- 0 AODV 48 [0 ffffffff 5 800] ------- [5:255 -1:255 24 0] [0x2 7 1 [1 0] [0 4]] (REQUEST)
r 2.593743762 _3_ MAC  --- 0 AODV 48 [0 ffffffff 5 800] ------- [5:255 -1:255 24 0] [0x2 7 1 [1 0] [0 4]] (REQUEST)
r 2.593768473 _26_ RTR  --- 0 AODV 48 [0 ffffffff 5 800] ------- [5:255 -1:255 24 0] [0x2 7 1 [1 0] [0 4]] (REQUEST)
r 2.593768517 _4_ RTR  --- 0 AODV 48 [0 ffffffff 5 800] ------- [5:255 -1:255 24 0] [0x2 7 1 [1 0] [0 4]] (REQUEST)
r 2.593768762 _3_ RTR  --- 0 AODV 48 [0 ffffffff 5 800] ------- [5:255 -1:255 24 0] [0x2 7 1 [1 0] [0 4]] (REQUEST)
s 2.594052438 _10_ RTR  --- 0 AODV 48 [0 ffffffff 1d 800] ------- [10:255 -1:255 22 0] [0x2 9 1 [1 0] [0 4]] (REQUEST)
s 2.594332434 _2_ RTR  --- 0 AODV 48 [0 ffffffff 1d 800] ------- [2:255 -1:255 22 0] [0x2 9 1 [1 0] [0 4]] (REQUEST)
s 2.594527434 _2_ MAC  --- 0 AODV 106 [0 ffffffff 2 800] ------- [2:255 -1:255 22 0] [0x2 9 1 [1 0] [0 4]] (REQUEST)
s 2.594682086 _4_ RTR  --- 0 AODV 48 [0 ffffffff 5 800] ------- [4:255 -1:255 23 0] [0x2 8 1 [1 0] [0 4]] (REQUEST)
r 2.595375448 _23_ MAC  --- 0 AODV 48 [0 ffffffff 2 800] ------- [2:255 -1:255 22 0] [0x2 9 1 [1 0] [0 4]] (REQUEST)
r 2.595375896 _9_ MAC  --- 0 AODV 48 [0 ffffffff 2 800] ------- [2:255 -1:255 22 0] [0x2 9 1 [1 0] [0 4]] (REQUEST)
r 2.595375926 _22_ MAC  --- 0 AODV 48 [0 ffffffff 2 800] ------- [2:255 -1:255 22 0] [0x2 9 1 [1 0] [0 4]] (REQUEST)
r 2.595375954 _10_ MAC  --- 0 AODV 48 [0 ffffffff 2 800] ------- [2:255 -1:255 22 0] [0x2 9 1 [1 0] [0 4]] (REQUEST)
r 2.595376006 _4_ MAC  --- 0 AODV 48 [0 ffffffff 2 800] ------- [2:255 -1:255 22 0] [0x2 9 1 [1 0] [0 4]] (REQUEST)
r 2.595376066 _3_ MAC  --- 0 AODV 48 [0 ffffffff 2 800] ------- [2:255 -1:255 22 0] [0x2 9 1 [1 0] [0 4]] (REQUEST)
r 2.595376172 _29_ MAC  --- 0 AODV 48 [0 ffffffff 2 800] ------- [2:255 -1:255 22 0] [0x2 9 1 [1 0] [0 4]] (REQUEST)
r 2.595400448 _23_ RTR  --- 0 AODV 48 [0 ffffffff 2 800] ------- [2:255 -1:255 22 0] [0x2 9 1 [1 0] [0 4]] (REQUEST)
r 2.595400896 _9_ RTR  --- 0 AODV 48 [0 ffffffff 2 800] ------- [2:255 -1:255 22 0] [0x2 9 1 [1 0] [0 4]] (REQUEST)
r 2.595400926 _22_ RTR  --- 0 AODV 48 [0 ffffffff 2 800] ------- [2:255 -1:255 22 0] [0x2 9 1 [1 0] [0 4]] (REQUEST)
r 2.595400954 _10_ RTR  --- 0 AODV 48 [0 ffffffff 2 800] ------- [2:255 -1:255 22 0] [0x2 9 1 [1 0] [0 4]] (REQUEST)
r 2.595401006 _4_ RTR  --- 0 AODV 48 [0 ffffffff 2 800] ------- [2:255 -1:255 22 0] [0x2 9 1 [1 0] [0 4]] (REQUEST)
r 2.595401066 _3_ RTR  --- 0 AODV 48 [0 ffffffff 2 800] ------- [2:255 -1:255 22 0] [0x2 9 1 [1 0] [0 4]] (REQUEST)
r 2.595401172 _29_ RTR  --- 0 AODV 48 [0 ffffffff 2 800] ------- [2:255 -1:255 22 0] [0x2 9 1 [1 0] [0 4]] (REQUEST)
s 2.595525954 _10_ MAC  --- 0 AODV 106 [0 ffffffff a 800] ------- [10:255 -1:255 22 0] [0x2 9 1 [1 0] [0 4]] (REQUEST)
r 2.596374001 _22_ MAC  --- 0 AODV 48 [0 ffffffff a 800] ------- [10:255 -1:255 22 0] [0x2 9 1 [1 0] [0 4]] (REQUEST)
r 2.596374474 _2_ MAC  --- 0 AODV 48 [0 ffffffff a 800] ------- [10:255 -1:255 22 0] [0x2 9 1 [1 0] [0 4]] (REQUEST)
r 2.596374487 _23_ MAC  --- 0 AODV 48 [0 ffffffff a 800] ------- [10:255 -1:255 22 0] [0x2 9 1 [1 0] [0 4]] (REQUEST)
r 2.596374517 _9_ MAC  --- 0 AODV 48 [0 ffffffff a 800] ------- [10:255 -1:255 22 0] [0x2 9 1 [1 0] [0 4]] (REQUEST)
r 2.596374758 _29_ MAC  --- 0 AODV 48 [0 ffffffff a 800] ------- [10:255 -1:255 22 0] [0x2 9 1 [1 0] [0 4]] (REQUEST)
r 2.596399001 _22_ RTR  --- 0 AODV 48 [0 ffffffff a 800] ------- [10:255 -1:255 22 0] [0x2 9 1 [1 0] [0 4]] (REQUEST)