n -t * -s 0  -x 301.64999999999998 -y 429.94 -Z 0 -z 100  -v circle -c black
n -t * -s 1  -x 288.86000000000001 -y 301.64999999999998 -Z 0 -z 100  -v circle -c black
n -t * -s 2  -x 10.880000000000001 -y 148.34999999999999 -Z 0 -z 100  -v circle -c black
n -t * -s 3  -x 598.35000000000002 -y 490.94 -Z 0 -z 100  -v circle -c black
n -t * -s 4  -x 234.31 -y 448.35000000000002 -Z 0 -z 100  -v circle -c black
n -t * -s 5  -x 148.34999999999999 -y 138.75999999999999 -Z 0 -z 100  -v circle -c black
n -t * -s 6  -x 539.52999999999997 -y 151.65000000000001 -Z 0 -z 100  -v circle -c black
n -t * -s 7  -x 141.02000000000001 -y 1.6499999999999999 -Z 0 -z 100  -v circle -c black
n -t * -s 8  -x 271.64999999999998 -y 601.64999999999998 -Z 0 -z 100  -v circle -c black
n -t * -s 9  -x 301.64999999999998 -y 289.62 -Z 0 -z 100  -v circle -c black
n -t * -s 10  -x 518.42999999999995 -y 451.64999999999998 -Z 0 -z 100  -v circle -c black
n -t * -s 11  -x 151.65000000000001 -y 465.99000000000001 -Z 0 -z 100  -v circle -c black
n -t * -s 12  -x 301.64999999999998 -y 356.06 -Z 0 -z 100  -v circle -c black
n -t * -s 13  -x 308.75999999999999 -y 301.64999999999998 -Z 0 -z 100  -v circle -c black
n -t * -s 14  -x 507.51999999999998 -y 598.35000000000002 -Z 0 -z 100  -v circle -c black
n -t * -s 15  -x 598.35000000000002 -y 211.97999999999999 -Z 0 -z 100  -v circle -c black
n -t * -s 16  -x 1.6499999999999999 -y 548.63 -Z 0 -z 100  -v circle -c black
n -t * -s 17  -x 448.35000000000002 -y 98.489999999999995 -Z 0 -z 100  -v circle -c black
n -t * -s 18  -x 451.64999999999998 -y 199.83000000000001 -Z 0 -z 100  -v circle -c black
n -t * -s 19  -x 598.35000000000002 -y 294.22000000000003 -Z 0 -z 100  -v circle -c black
n -t * -s 20  -x 0 -y 0 -Z 0 -z 100  -v circle -c black
n -t * -s 21  -x 0 -y 0 -Z 0 -z 100  -v circle -c black
n -t * -s 22  -x 0 -y 0 -Z 0 -z 100  -v circle -c black
n -t * -s 23  -x 0 -y 0 -Z 0 -z 100  -v circle -c black
n -t * -s 24  -x 0 -y 0 -Z 0 -z 100  -v circle -c black
n -t * -s 25  -x 0 -y 0 -Z 0 -z 100  -v circle -c black
n -t * -s 26  -x 0 -y 0 -Z 0 -z 100  -v circle -c black
n -t * -s 27  -x 0 -y 0 -Z 0 -z 100  -v circle -c black
n -t * -s 28  -x 0 -y 0 -Z 0 -z 100  -v circle -c black
n -t * -s 29  -x 0 -y 0 -Z 0 -z 100  -v circle -c black
V -t * -v 1.0a5 -a 0
W -t * -x 800 -y 800
A -t * -n 1 -p 0 -o 0x7fffffff -c 30 -a 1
A -t * -h 1 -m 1073741823 -s 0
n -t 0.000000 -s 0 -x 301.650000 -y 429.940000 -U 0.000000 -V 0.000000 -T 0.000000
n -t 0 -s 15 -S COLOR -c green -o green -i green -I green
n -t 0 -s 15 -S DLABEL -l "Source" -L ""
n -t 0 -s 16 -S COLOR -c blue -o blue -i blue -I blue
n -t 0 -s 16 -S DLABEL -l "Destination" -L ""
n -t 1.000000 -s 0 -x 301.650000 -y 429.940000 -U 1.944899 -V 18.970563 -T 0.961490
n -t 1.000000 -s 1 -x 288.860000 -y 301.650000 -U 0.000000 -V 0.000000 -T 0.000000
n -t 2.000000 -s 0 -x 303.520000 -y 448.180000 -U 19.359253 -V 0.170081 -T 0.999522
n -t 2.000000 -s 1 -x 288.860000 -y 301.650000 -U -19.230000 -V 0.000000 -T 1.000000
n -t 2.000000 -s 2 -x 10.880000 -y 148.350000 -U 0.000000 -V 0.000000 -T 0.000000
+ -t 2.556838879 -s 15 -d -1 -p cbr -e 512 -c 2 -a 0 -i 0 -k AGT 
- -t 2.556838879 -s 15 -d -1 -p cbr -e 512 -c 2 -a 0 -i 0 -k AGT
h -t 2.556838879 -s 15 -d -1 -p cbr -e 512 -c 2 -a 0 -i 0 -k AGT
+ -t 2.556838879 -s 15 -d -1 -p AODV -e 48 -c 2 -a 0 -i 0 -k RTR 
- -t 2.556838879 -s 15 -d -1 -p AODV -e 48 -c 2 -a 0 -i 0 -k RTR
h -t 2.556838879 -s 15 -d -1 -p AODV -e 48 -c 2 -a 0 -i 0 -k RTR
+ -t 2.556953879 -s 15 -d -1 -p AODV -e 106 -c 2 -a 0 -i 0 -k MAC 
- -t 2.556953879 -s 15 -d -1 -p AODV -e 106 -c 2 -a 0 -i 0 -k MAC
h -t 2.556953879 -s 15 -d -1 -p AODV -e 106 -c 2 -a 0 -i 0 -k MAC
r -t 2.557802153 -s 19 -d -1 -p AODV -e 48 -c 2 -a 0 -i 0 -k MAC
r -t 2.557802160 -s 6 -d -1 -p AODV -e 48 -c 2 -a 0 -i 0 -k MAC
r -t 2.557802369 -s 18 -d -1 -p AODV -e 48 -c 2 -a 0 -i 0 -k MAC
r -t 2.557802506 -s 17 -d -1 -p AODV -e 48 -c 2 -a 0 -i 0 -k MAC
r -t 2.557827153 -s 19 -d -1 -p AODV -e 48 -c 2 -a 0 -i 0 -k RTR
r -t 2.557827160 -s 6 -d -1 -p AODV -e 48 -c 2 -a 0 -i 0 -k RTR
r -t 2.557827369 -s 18 -d -1 -p AODV -e 48 -c 2 -a 0 -i 0 -k RTR
r -t 2.557827506 -s 17 -d -1 -p AODV -e 48 -c 2 -a 0 -i 0 -k RTR
+ -t 2.558708380 -s 19 -d -1 -p AODV -e 48 -c 2 -a 0 -i 0 -k RTR 
- -t 2.558708380 -s 19 -d -1 -p AODV -e 48 -c 2 -a 0 -i 0 -k RTR
h -t 2.558708380 -s 19 -d -1 -p AODV -e 48 -c 2 -a 0 -i 0 -k RTR
+ -t 2.558983380 -s 19 -d -1 -p AODV -e 106 -c 2 -a 0 -i 0 -k MAC 
- -t 2.558983380 -s 19 -d -1 -p AODV -e 106 -c 2 -a 0 -i 0 -k MAC
h -t 2.558983380 -s 19 -d -1 -p AODV -e 106 -c 2 -a 0 -i 0 -k MAC
r -t 2.559831654 -s 15 -d -1 -p AODV -e 48 -c 2 -a 0 -i 0 -k MAC
r -t 2.559831894 -s 6 -d -1 -p AODV -e 48 -c 2 -a 0 -i 0 -k MAC
r -t 2.559831961 -s 18 -d -1 -p AODV -e 48 -c 2 -a 0 -i 0 -k MAC
r -t 2.559831968 -s 10 -d -1 -p AODV -e 48 -c 2 -a 0 -i 0 -k MAC
r -t 2.559832035 -s 3 -d -1 -p AODV -e 48 -c 2 -a 0 -i 0 -k MAC
r -t 2.559832202 -s 17 -d -1 -p AODV -e 48 -c 2 -a 0 -i 0 -k MAC
r -t 2.559856654 -s 15 -d -1 -p AODV -e 48 -c 2 -a 0 -i 0 -k RTR
r -t 2.559856894 -s 6 -d -1 -p AODV -e 48 -c 2 -a 0 -i 0 -k RTR
r -t 2.559856961 -s 18 -d -1 -p AODV -e 48 -c 2 -a 0 -i 0 -k RTR
r -t 2.559856968 -s 10 -d -1 -p AODV -e 48 -c 2 -a 0 -i 0 -k RTR
r -t 2.559857035 -s 3 -d -1 -p AODV -e 48 -c 2 -a 0 -i 0 -k RTR
+ -t 2.559857035 -s 3 -d 19 -p AODV -e 44 -c 2 -a 0 -i 0 -k RTR 
- -t 2.559857035 -s 3 -d 19 -p AODV -e 44 -c 2 -a 0 -i 0 -k RTR
h -t 2.559857035 -s 3 -d 19 -p AODV -e 44 -c 2 -a 0 -i 0 -k RTR
r -t 2.559857202 -s 17 -d -1 -p AODV -e 48 -c 2 -a 0 -i 0 -k RTR
+ -t 2.560172035 -s 3 -d -1 -p ARP -e 86 -c 2 -a 0 -i 0 -k MAC 
- -t 2.560172035 -s 3 -d -1 -p ARP -e 86 -c 2 -a 0 -i 0 -k MAC
h -t 2.560172035 -s 3 -d -1 -p ARP -e 86 -c 2 -a 0 -i 0 -k MAC
r -t 2.560860332 -s 10 -d -1 -p ARP -e 28 -c 2 -a 0 -i 0 -k MAC
r -t 2.560860504 -s 14 -d -1 -p ARP -e 28 -c 2 -a 0 -i 0 -k MAC
r -t 2.560860691 -s 19 -d -1 -p ARP -e 28 -c 2 -a 0 -i 0 -k MAC
+ -t 2.560955691 -s 19 -d -1 -p RTS -e 44 -c 2 -a 0 -i 0 -k MAC 
- -t 2.560955691 -s 19 -d -1 -p RTS -e 44 -c 2 -a 0 -i 0 -k MAC
h -t 2.560955691 -s 19 -d -1 -p RTS -e 44 -c 2 -a 0 -i 0 -k MAC
+ -t 2.560957123 -s 17 -d -1 -p AODV -e 48 -c 2 -a 0 -i 0 -k RTR 
- -t 2.560957123 -s 17 -d -1 -p AODV -e 48 -c 2 -a 0 -i 0 -k RTR
h -t 2.560957123 -s 17 -d -1 -p AODV -e 48 -c 2 -a 0 -i 0 -k RTR
r -t 2.561308347 -s 3 -d -1 -p RTS -e 44 -c 2 -a 0 -i 0 -k MAC
+ -t 2.561318347 -s 3 -d -1 -p CTS -e 38 -c 2 -a 0 -i 0 -k MAC 
- -t 2.561318347 -s 3 -d -1 -p CTS -e 38 -c 2 -a 0 -i 0 -k MAC
h -t 2.561318347 -s 3 -d -1 -p CTS -e 38 -c 2 -a 0 -i 0 -k MAC
r -t 2.561623002 -s 19 -d -1 -p CTS -e 38 -c 2 -a 0 -i 0 -k MAC
+ -t 2.561633002 -s 19 -d -1 -p ARP -e 86 -c 2 -a 0 -i 0 -k MAC 
- -t 2.561633002 -s 19 -d -1 -p ARP -e 86 -c 2 -a 0 -i 0 -k MAC
h -t 2.561633002 -s 19 -d -1 -p ARP -e 86 -c 2 -a 0 -i 0 -k MAC
+ -t 2.562238893 -s 6 -d -1 -p AODV -e 48 -c 2 -a 0 -i 0 -k RTR 
- -t 2.562238893 -s 6 -d -1 -p AODV -e 48 -c 2 -a 0 -i 0 -k RTR
h -t 2.562238893 -s 6 -d -1 -p AODV -e 48 -c 2 -a 0 -i 0 -k RTR
r -t 2.562321658 -s 3 -d -1 -p ARP -e 28 -c 2 -a 0 -i 0 -k MAC
+ -t 2.562331658 -s 3 -d -1 -p ACK -e 38 -c 2 -a 0 -i 0 -k MAC 
- -t 2.562331658 -s 3 -d -1 -p ACK -e 38 -c 2 -a 0 -i 0 -k MAC
h -t 2.562331658 -s 3 -d -1 -p ACK -e 38 -c 2 -a 0 -i 0 -k MAC
r -t 2.562636314 -s 19 -d -1 -p ACK -e 38 -c 2 -a 0 -i 0 -k MAC
+ -t 2.562885658 -s 3 -d -1 -p RTS -e 44 -c 2 -a 0 -i 0 -k MAC 
- -t 2.562885658 -s 3 -d -1 -p RTS -e 44 -c 2 -a 0 -i 0 -k MAC
h -t 2.562885658 -s 3 -d -1 -p RTS -e 44 -c 2 -a 0 -i 0 -k MAC
r -t 2.563238314 -s 19 -d -1 -p RTS -e 44 -c 2 -a 0 -i 0 -k MAC
+ -t 2.563248314 -s 19 -d -1 -p CTS -e 38 -c 2 -a 0 -i 0 -k MAC 
- -t 2.563248314 -s 19 -d -1 -p CTS -e 38 -c 2 -a 0 -i 0 -k MAC
h -t 2.563248314 -s 19 -d -1 -p CTS -e 38 -c 2 -a 0 -i 0 -k MAC
r -t 2.563552970 -s 3 -d -1 -p CTS -e 38 -c 2 -a 0 -i 0 -k MAC
+ -t 2.563562970 -s 3 -d 19 -p AODV -e 102 -c 2 -a 0 -i 0 -k MAC 
- -t 2.563562970 -s 3 -d 19 -p AODV -e 102 -c 2 -a 0 -i 0 -k MAC
h -t 2.563562970 -s 3 -d 19 -p AODV -e 102 -c 2 -a 0 -i 0 -k MAC
r -t 2.564379625 -s 19 -d 19 -p AODV -e 44 -c 2 -a 0 -i 0 -k MAC
+ -t 2.564389625 -s 19 -d -1 -p ACK -e 38 -c 2 -a 0 -i 0 -k MAC 
- -t 2.564389625 -s 19 -d -1 -p ACK -e 38 -c 2 -a 0 -i 0 -k MAC
h -t 2.564389625 -s 19 -d -1 -p ACK -e 38 -c 2 -a 0 -i 0 -k MAC
+ -t 2.564404625 -s 19 -d 15 -p AODV -e 44 -c 2 -a 0 -i 0 -k RTR 
- -t 2.564404625 -s 19 -d 15 -p AODV -e 44 -c 2 -a 0 -i 0 -k RTR
h -t 2.564404625 -s 19 -d 15 -p AODV -e 44 -c 2 -a 0 -i 0 -k RTR
r -t 2.564694281 -s 3 -d -1 -p ACK -e 38 -c 2 -a 0 -i 0 -k MAC
+ -t 2.564923625 -s 19 -d -1 -p ARP -e 86 -c 2 -a 0 -i 0 -k MAC 
- -t 2.564923625 -s 19 -d -1 -p ARP -e 86 -c 2 -a 0 -i 0 -k MAC
h -t 2.564923625 -s 19 -d -1 -p ARP -e 86 -c 2 -a 0 -i 0 -k MAC
r -t 2.565611900 -s 15 -d -1 -p ARP -e 28 -c 2 -a 0 -i 0 -k MAC
r -t 2.565612139 -s 6 -d -1 -p ARP -e 28 -c 2 -a 0 -i 0 -k MAC
r -t 2.565612207 -s 18 -d -1 -p ARP -e 28 -c 2 -a 0 -i 0 -k MAC
r -t 2.565612214 -s 10 -d -1 -p ARP -e 28 -c 2 -a 0 -i 0 -k MAC
r -t 2.565612281 -s 3 -d -1 -p ARP -e 28 -c 2 -a 0 -i 0 -k MAC
r -t 2.565612447 -s 17 -d -1 -p ARP -e 28 -c 2 -a 0 -i 0 -k MAC
+ -t 2.565702139 -s 6 -d -1 -p AODV -e 106 -c 2 -a 0 -i 0 -k MAC 
- -t 2.565702139 -s 6 -d -1 -p AODV -e 106 -c 2 -a 0 -i 0 -k MAC
h -t 2.565702139 -s 6 -d -1 -p AODV -e 106 -c 2 -a 0 -i 0 -k MAC
+ -t 2.565818924 -s 18 -d -1 -p AODV -e 48 -c 2 -a 0 -i 0 -k RTR 
- -t 2.565818924 -s 18 -d -1 -p AODV -e 48 -c 2 -a 0 -i 0 -k RTR
h -t 2.565818924 -s 18 -d -1 -p AODV -e 48 -c 2 -a 0 -i 0 -k RTR
+ -t 2.566245619 -s 10 -d -1 -p AODV -e 48 -c 2 -a 0 -i 0 -k RTR 
- -t 2.566245619 -s 10 -d -1 -p AODV -e 48 -c 2 -a 0 -i 0 -k RTR
h -t 2.566245619 -s 10 -d -1 -p AODV -e 48 -c 2 -a 0 -i 0 -k RTR
r -t 2.566550420 -s 15 -d -1 -p AODV -e 48 -c 2 -a 0 -i 0 -k MAC
r -t 2.566550474 -s 18 -d -1 -p AODV -e 48 -c 2 -a 0 -i 0 -k MAC
r -t 2.566550491 -s 17 -d -1 -p AODV -e 48 -c 2 -a 0 -i 0 -k MAC
r -t 2.566550654 -s 19 -d -1 -p AODV -e 48 -c 2 -a 0 -i 0 -k MAC
r -t 2.566575420 -s 15 -d -1 -p AODV -e 48 -c 2 -a 0 -i 0 -k RTR
r -t 2.566575474 -s 18 -d -1 -p AODV -e 48 -c 2 -a 0 -i 0 -k RTR
r -t 2.566575491 -s 17 -d -1 -p AODV -e 48 -c 2 -a 0 -i 0 -k RTR
r -t 2.566575654 -s 19 -d -1 -p AODV -e 48 -c 2 -a 0 -i 0 -k RTR
+ -t 2.566940474 -s 18 -d -1 -p AODV -e 106 -c 2 -a 0 -i 0 -k MAC 
- -t 2.566940474 -s 18 -d -1 -p AODV -e 106 -c 2 -a 0 -i 0 -k MAC
h -t 2.566940474 -s 18 -d -1 -p AODV -e 106 -c 2 -a 0 -i 0 -k MAC
r -t 2.567788808 -s 6 -d -1 -p AODV -e 48 -c 2 -a 0 -i 0 -k MAC
r -t 2.567788812 -s 17 -d -1 -p AODV -e 48 -c 2 -a 0 -i 0 -k MAC
r -t 2.567788964 -s 15 -d -1 -p AODV -e 48 -c 2 -a 0 -i 0 -k MAC
r -t 2.567789055 -s 19 -d -1 -p AODV -e 48 -c 2 -a 0 -i 0 -k MAC
r -t 2.567789056 -s 9 -d -1 -p AODV -e 48 -c 2 -a 0 -i 0 -k MAC
r -t 2.567789058 -s 13 -d -1 -p AODV -e 48 -c 2 -a 0 -i 0 -k MAC
r -t 2.567789145 -s 1 -d -1 -p AODV -e 48 -c 2 -a 0 -i 0 -k MAC
r -t 2.567789196 -s 12 -d -1 -p AODV -e 48 -c 2 -a 0 -i 0 -k MAC
r -t 2.567813808 -s 6 -d -1 -p AODV -e 48 -c 2 -a 0 -i 0 -k RTR
r -t 2.567813812 -s 17 -d -1 -p AODV -e 48 -c 2 -a 0 -i 0 -k RTR
r -t 2.567813964 -s 15 -d -1 -p AODV -e 48 -c 2 -a 0 -i 0 -k RTR
r -t 2.567814055 -s 19 -d -1 -p AODV -e 48 -c 2 -a 0 -i 0 -k RTR
r -t 2.567814056 -s 9 -d -1 -p AODV -e 48 -c 2 -a 0 -i 0 -k RTR
r -t 2.567814058 -s 13 -d -1 -p AODV -e 48 -c 2 -a 0 -i 0 -k RTR
r -t 2.567814145 -s 1 -d -1 -p AODV -e 48 -c 2 -a 0 -i 0 -k RTR
r -t 2.567814196 -s 12 -d -1 -p AODV -e 48 -c 2 -a 0 -i 0 -k RTR
+ -t 2.567878812 -s 17 -d -1 -p AODV -e 106 -c 2 -a 0 -i 0 -k MAC 
- -t 2.567878812 -s 17 -d -1 -p AODV -e 106 -c 2 -a 0 -i 0 -k MAC
h -t 2.567878812 -s 17 -d -1 -p AODV -e 106 -c 2 -a 0 -i 0 -k MAC
r -t 2.568727150 -s 18 -d -1 -p AODV -e 48 -c 2 -a 0 -i 0 -k MAC
r -t 2.568727163 -s 6 -d -1 -p AODV -e 48 -c 2 -a 0 -i 0 -k MAC
r -t 2.568727439 -s 15 -d -1 -p AODV -e 48 -c 2 -a 0 -i 0 -k MAC
r -t 2.568727615 -s 9 -d -1 -p AODV -e 48 -c 2 -a 0 -i 0 -k MAC
r -t 2.568727633 -s 13 -d -1 -p AODV -e 48 -c 2 -a 0 -i 0 -k MAC
r -t 2.568727634 -s 19 -d -1 -p AODV -e 48 -c 2 -a 0 -i 0 -k MAC
r -t 2.568752150 -s 18 -d -1 -p AODV -e 48 -c 2 -a 0 -i 0 -k RTR
r -t 2.568752163 -s 6 -d -1 -p AODV -e 48 -c 2 -a 0 -i 0 -k RTR
r -t 2.568752439 -s 15 -d -1 -p AODV -e 48 -c 2 -a 0 -i 0 -k RTR
r -t 2.568752615 -s 9 -d -1 -p AODV -e 48 -c 2 -a 0 -i 0 -k RTR
r -t 2.568752633 -s 13 -d -1 -p AODV -e 48 -c 2 -a 0 -i 0 -k RTR
r -t 2.568752634 -s 19 -d -1 -p AODV -e 48 -c 2 -a 0 -i 0 -k RTR
+ -t 2.568857439 -s 15 -d -1 -p RTS -e 44 -c 2 -a 0 -i 0 -k MAC 
- -t 2.568857439 -s 15 -d -1 -p RTS -e 44 -c 2 -a 0 -i 0 -k MAC
h -t 2.568857439 -s 15 -d -1 -p RTS -e 44 -c 2 -a 0 -i 0 -k MAC
r -t 2.569209713 -s 19 -d -1 -p RTS -e 44 -c 2 -a 0 -i 0 -k MAC
+ -t 2.569219713 -s 19 -d -1 -p CTS -e 38 -c 2 -a 0 -i 0 -k MAC 
- -t 2.569219713 -s 19 -d -1 -p CTS -e 38 -c 2 -a 0 -i 0 -k MAC
h -t 2.569219713 -s 19 -d -1 -p CTS -e 38 -c 2 -a 0 -i 0 -k MAC
r -t 2.569523987 -s 15 -d -1 -p CTS -e 38 -c 2 -a 0 -i 0 -k MAC
+ -t 2.569533987 -s 15 -d -1 -p ARP -e 86 -c 2 -a 0 -i 0 -k MAC 
- -t 2.569533987 -s 15 -d -1 -p ARP -e 86 -c 2 -a 0 -i 0 -k MAC
h -t 2.569533987 -s 15 -d -1 -p ARP -e 86 -c 2 -a 0 -i 0 -k MAC
r -t 2.570222261 -s 19 -d -1 -p ARP -e 28 -c 2 -a 0 -i 0 -k MAC
+ -t 2.570232261 -s 19 -d -1 -p ACK -e 38 -c 2 -a 0 -i 0 -k MAC 
- -t 2.570232261 -s 19 -d -1 -p ACK -e 38 -c 2 -a 0 -i 0 -k MAC
h -t 2.570232261 -s 19 -d -1 -p ACK -e 38 -c 2 -a 0 -i 0 -k MAC
r -t 2.570536535 -s 15 -d -1 -p ACK -e 38 -c 2 -a 0 -i 0 -k MAC
+ -t 2.570956829 -s 10 -d -1 -p AODV -e 106 -c 2 -a 0 -i 0 -k MAC 
- -t 2.570956829 -s 10 -d -1 -p AODV -e 106 -c 2 -a 0 -i 0 -k MAC
h -t 2.570956829 -s 10 -d -1 -p AODV -e 106 -c 2 -a 0 -i 0 -k MAC
r -t 2.571805126 -s 3 -d -1 -p AODV -e 48 -c 2 -a 0 -i 0 -k MAC
r -t 2.571805319 -s 14 -d -1 -p AODV -e 48 -c 2 -a 0 -i 0 -k MAC
r -t 2.571805417 -s 19 -d -1 -p AODV -e 48 -c 2 -a 0 -i 0 -k MAC
r -t 2.571805509 -s 0 -d -1 -p AODV -e 48 -c 2 -a 0 -i 0 -k MAC
r -t 2.571805619 -s 12 -d -1 -p AODV -e 48 -c 2 -a 0 -i 0 -k MAC
r -t 2.571830126 -s 3 -d -1 -p AODV -e 48 -c 2 -a 0 -i 0 -k RTR
r -t 2.571830319 -s 14 -d -1 -p AODV -e 48 -c 2 -a 0 -i 0 -k RTR
r -t 2.571830417 -s 19 -d -1 -p AODV -e 48 -c 2 -a 0 -i 0 -k RTR
r -t 2.571830509 -s 0 -d -1 -p AODV -e 48 -c 2 -a 0 -i 0 -k RTR
r -t 2.571830619 -s 12 -d -1 -p AODV -e 48 -c 2 -a 0 -i 0 -k RTR
+ -t 2.571895417 -s 19 -d -1 -p RTS -e 44 -c 2 -a 0 -i 0 -k MAC 
- -t 2.571895417 -s 19 -d -1 -p RTS -e 44 -c 2 -a 0 -i 0 -k MAC
h -t 2.571895417 -s 19 -d -1 -p RTS -e 44 -c 2 -a 0 -i 0 -k MAC
+ -t 2.571900913 -s 9 -d -1 -p AODV -e 48 -c 2 -a 0 -i 0 -k RTR 
- -t 2.571900913 -s 9 -d -1 -p AODV -e 48 -c 2 -a 0 -i 0 -k RTR
h -t 2.571900913 -s 9 -d -1 -p AODV -e 48 -c 2 -a 0 -i 0 -k RTR
r -t 2.572247692 -s 15 -d -1 -p RTS -e 44 -c 2 -a 0 -i 0 -k MAC
+ -t 2.572257692 -s 15 -d -1 -p CTS -e 38 -c 2 -a 0 -i 0 -k MAC 
- -t 2.572257692 -s 15 -d -1 -p CTS -e 38 -c 2 -a 0 -i 0 -k MAC
h -t 2.572257692 -s 15 -d -1 -p CTS -e 38 -c 2 -a 0 -i 0 -k MAC
+ -t 2.572475304 -s 1 -d -1 -p AODV -e 48 -c 2 -a 0 -i 0 -k RTR 
- -t 2.572475304 -s 1 -d -1 -p AODV -e 48 -c 2 -a 0 -i 0 -k RTR
h -t 2.572475304 -s 1 -d -1 -p AODV -e 48 -c 2 -a 0 -i 0 -k RTR
r -t 2.572561966 -s 19 -d -1 -p CTS -e 38 -c 2 -a 0 -i 0 -k MAC
+ -t 2.572571966 -s 19 -d 15 -p AODV -e 102 -c 2 -a 0 -i 0 -k MAC 
- -t 2.572571966 -s 19 -d 15 -p AODV -e 102 -c 2 -a 0 -i 0 -k MAC
h -t 2.572571966 -s 19 -d 15 -p AODV -e 102 -c 2 -a 0 -i 0 -k MAC
+ -t 2.573000546 -s 13 -d -1 -p AODV -e 48 -c 2 -a 0 -i 0 -k RTR 
- -t 2.573000546 -s 13 -d -1 -p AODV -e 48 -c 2 -a 0 -i 0 -k RTR
h -t 2.573000546 -s 13 -d -1 -p AODV -e 48 -c 2 -a 0 -i 0 -k RTR
r -t 2.573388240 -s 15 -d 15 -p AODV -e 44 -c 2 -a 0 -i 0 -k MAC
+ -t 2.573398240 -s 15 -d -1 -p ACK -e 38 -c 2 -a 0 -i 0 -k MAC 
- -t 2.573398240 -s 15 -d -1 -p ACK -e 38 -c 2 -a 0 -i 0 -k MAC
h -t 2.573398240 -s 15 -d -1 -p ACK -e 38 -c 2 -a 0 -i 0 -k MAC
+ -t 2.573413240 -s 15 -d 19 -p cbr -e 532 -c 2 -a 0 -i 0 -k RTR 
- -t 2.573413240 -s 15 -d 19 -p cbr -e 532 -c 2 -a 0 -i 0 -k RTR
h -t 2.573413240 -s 15 -d 19 -p cbr -e 532 -c 2 -a 0 -i 0 -k RTR
r -t 2.573702514 -s 19 -d -1 -p ACK -e 38 -c 2 -a 0 -i 0 -k MAC
+ -t 2.573932240 -s 15 -d -1 -p RTS -e 44 -c 2 -a 0 -i 0 -k MAC 
- -t 2.573932240 -s 15 -d -1 -p RTS -e 44 -c 2 -a 0 -i 0 -k MAC
h -t 2.573932240 -s 15 -d -1 -p RTS -e 44 -c 2 -a 0 -i 0 -k MAC
r -t 2.574284514 -s 19 -d -1 -p RTS -e 44 -c 2 -a 0 -i 0 -k MAC
+ -t 2.574294514 -s 19 -d -1 -p CTS -e 38 -c 2 -a 0 -i 0 -k MAC 
- -t 2.574294514 -s 19 -d -1 -p CTS -e 38 -c 2 -a 0 -i 0 -k MAC
h -t 2.574294514 -s 19 -d -1 -p CTS -e 38 -c 2 -a 0 -i 0 -k MAC
r -t 2.574598788 -s 15 -d -1 -p CTS -e 38 -c 2 -a 0 -i 0 -k MAC
+ -t 2.574608788 -s 15 -d 19 -p cbr -e 590 -c 2 -a 0 -i 0 -k MAC 
- -t 2.574608788 -s 15 -d 19 -p cbr -e 590 -c 2 -a 0 -i 0 -k MAC
h -t 2.574608788 -s 15 -d 19 -p cbr -e 590 -c 2 -a 0 -i 0 -k MAC
+ -t 2.574737264 -s 12 -d -1 -p AODV -e 48 -c 2 -a 0 -i 0 -k RTR 
- -t 2.574737264 -s 12 -d -1 -p AODV -e 48 -c 2 -a 0 -i 0 -k RTR
h -t 2.574737264 -s 12 -d -1 -p AODV -e 48 -c 2 -a 0 -i 0 -k RTR
+ -t 2.578603998 -s 0 -d -1 -p AODV -e 48 -c 2 -a 0 -i 0 -k RTR 
- -t 2.578603998 -s 0 -d -1 -p AODV -e 48 -c 2 -a 0 -i 0 -k RTR
h -t 2.578603998 -s 0 -d -1 -p AODV -e 48 -c 2 -a 0 -i 0 -k RTR
r -t 2.579329062 -s 19 -d 19 -p cbr -e 532 -c 2 -a 0 -i 0 -k MAC
+ -t 2.579339062 -s 19 -d -1 -p ACK -e 38 -c 2 -a 0 -i 0 -k MAC 
- -t 2.579339062 -s 19 -d -1 -p ACK -e 38 -c 2 -a 0 -i 0 -k MAC
h -t 2.579339062 -s 19 -d -1 -p ACK -e 38 -c 2 -a 0 -i 0 -k MAC
+ -t 2.579354062 -s 19 -d 3 -p cbr -e 532 -c 2 -a 0 -i 0 -k RTR 
- -t 2.579354062 -s 19 -d 3 -p cbr -e 532 -c 2 -a 0 -i 0 -k RTR
h -t 2.579354062 -s 19 -d 3 -p cbr -e 532 -c 2 -a 0 -i 0 -k RTR
r -t 2.579643336 -s 15 -d -1 -p ACK -e 38 -c 2 -a 0 -i 0 -k MAC
+ -t 2.579793062 -s 19 -d -1 -p RTS -e 44 -c 2 -a 0 -i 0 -k MAC 
- -t 2.579793062 -s 19 -d -1 -p RTS -e 44 -c 2 -a 0 -i 0 -k MAC
h -t 2.579793062 -s 19 -d -1 -p RTS -e 44 -c 2 -a 0 -i 0 -k MAC
r -t 2.580145718 -s 3 -d -1 -p RTS -e 44 -c 2 -a 0 -i 0 -k MAC
+ -t 2.580155718 -s 3 -d -1 -p CTS -e 38 -c 2 -a 0 -i 0 -k MAC 
- -t 2.580155718 -s 3 -d -1 -p CTS -e 38 -c 2 -a 0 -i 0 -k MAC
h -t 2.580155718 -s 3 -d -1 -p CTS -e 38 -c 2 -a 0 -i 0 -k MAC
+ -t 2.580341385 -s 14 -d -1 -p AODV -e 48 -c 2 -a 0 -i 0 -k RTR 
- -t 2.580341385 -s 14 -d -1 -p AODV -e 48 -c 2 -a 0 -i 0 -k RTR
h -t 2.580341385 -s 14 -d -1 -p AODV -e 48 -c 2 -a 0 -i 0 -k RTR
r -t 2.580460374 -s 19 -d -1 -p CTS -e 38 -c 2 -a 0 -i 0 -k MAC
+ -t 2.580470374 -s 19 -d 3 -p cbr -e 590 -c 2 -a 0 -i 0 -k MAC 
- -t 2.580470374 -s 19 -d 3 -p cbr -e 590 -c 2 -a 0 -i 0 -k MAC
h -t 2.580470374 -s 19 -d 3 -p cbr -e 590 -c 2 -a 0 -i 0 -k MAC
r -t 2.585191029 -s 3 -d 3 -p cbr -e 532 -c 2 -a 0 -i 0 -k MAC
+ -t 2.585201029 -s 3 -d -1 -p ACK -e 38 -c 2 -a 0 -i 0 -k MAC 
- -t 2.585201029 -s 3 -d -1 -p ACK -e 38 -c 2 -a 0 -i 0 -k MAC
h -t 2.585201029 -s 3 -d -1 -p ACK -e 38 -c 2 -a 0 -i 0 -k MAC
d -t 2.585216029 -s 3 -d 3 -p cbr -e 532 -c 2 -a 0 -i 0 -k RTR
r -t 2.585505685 -s 19 -d -1 -p ACK -e 38 -c 2 -a 0 -i 0 -k MAC
+ -t 2.585825432 -s 14 -d -1 -p AODV -e 106 -c 2 -a 0 -i 0 -k MAC 
- -t 2.585825432 -s 14 -d -1 -p AODV -e 106 -c 2 -a 0 -i 0 -k MAC
h -t 2.585825432 -s 14 -d -1 -p AODV -e 106 -c 2 -a 0 -i 0 -k MAC
r -t 2.586673901 -s 3 -d -1 -p AODV -e 48 -c 2 -a 0 -i 0 -k MAC
r -t 2.586673922 -s 10 -d -1 -p AODV -e 48 -c 2 -a 0 -i 0 -k MAC
r -t 2.586674218 -s 8 -d -1 -p AODV -e 48 -c 2 -a 0 -i 0 -k MAC
r -t 2.586674246 -s 0 -d -1 -p AODV -e 48 -c 2 -a 0 -i 0 -k MAC
r -t 2.586698901 -s 3 -d -1 -p AODV -e 48 -c 2 -a 0 -i 0 -k RTR
r -t 2.586698922 -s 10 -d -1 -p AODV -e 48 -c 2 -a 0 -i 0 -k RTR
r -t 2.586699218 -s 8 -d -1 -p AODV -e 48 -c 2 -a 0 -i 0 -k RTR
+ -t 2.586699218 -s 8 -d 14 -p AODV -e 44 -c 2 -a 0 -i 0 -k RTR 
- -t 2.586699218 -s 8 -d 14 -p AODV -e 44 -c 2 -a 0 -i 0 -k RTR
h -t 2.586699218 -s 8 -d 14 -p AODV -e 44 -c 2 -a 0 -i 0 -k RTR
r -t 2.586699246 -s 0 -d -1 -p AODV -e 48 -c 2 -a 0 -i 0 -k RTR
+ -t 2.586814218 -s 8 -d -1 -p ARP -e 86 -c 2 -a 0 -i 0 -k MAC 
- -t 2.586814218 -s 8 -d -1 -p ARP -e 86 -c 2 -a 0 -i 0 -k MAC
h -t 2.586814218 -s 8 -d -1 -p ARP -e 86 -c 2 -a 0 -i 0 -k MAC
r -t 2.587502744 -s 4 -d -1 -p ARP -e 28 -c 2 -a 0 -i 0 -k MAC
r -t 2.587502749 -s 0 -d -1 -p ARP -e 28 -c 2 -a 0 -i 0 -k MAC
r -t 2.587502822 -s 11 -d -1 -p ARP -e 28 -c 2 -a 0 -i 0 -k MAC
r -t 2.587503004 -s 14 -d -1 -p ARP -e 28 -c 2 -a 0 -i 0 -k MAC
r -t 2.587503043 -s 12 -d -1 -p ARP -e 28 -c 2 -a 0 -i 0 -k MAC
+ -t 2.587572749 -s 0 -d -1 -p AODV -e 106 -c 2 -a 0 -i 0 -k MAC 
- -t 2.587572749 -s 0 -d -1 -p AODV -e 106 -c 2 -a 0 -i 0 -k MAC
h -t 2.587572749 -s 0 -d -1 -p AODV -e 106 -c 2 -a 0 -i 0 -k MAC
r -t 2.588421018 -s 4 -d -1 -p AODV -e 48 -c 2 -a 0 -i 0 -k MAC
r -t 2.588421060 -s 12 -d -1 -p AODV -e 48 -c 2 -a 0 -i 0 -k MAC
r -t 2.588421238 -s 13 -d -1 -p AODV -e 48 -c 2 -a 0 -i 0 -k MAC
r -t 2.588421254 -s 1 -d -1 -p AODV -e 48 -c 2 -a 0 -i 0 -k MAC
r -t 2.588421280 -s 9 -d -1 -p AODV -e 48 -c 2 -a 0 -i 0 -k MAC
r -t 2.588421280 -s 8 -d -1 -p AODV -e 48 -c 2 -a 0 -i 0 -k MAC
r -t 2.588421297 -s 11 -d -1 -p AODV -e 48 -c 2 -a 0 -i 0 -k MAC
r -t 2.588421428 -s 10 -d -1 -p AODV -e 48 -c 2 -a 0 -i 0 -k MAC
r -t 2.588421563 -s 14 -d -1 -p AODV -e 48 -c 2 -a 0 -i 0 -k MAC
r -t 2.588446018 -s 4 -d -1 -p AODV -e 48 -c 2 -a 0 -i 0 -k RTR
r -t 2.588446060 -s 12 -d -1 -p AODV -e 48 -c 2 -a 0 -i 0 -k RTR
r -t 2.588446238 -s 13 -d -1 -p AODV -e 48 -c 2 -a 0 -i 0 -k RTR
r -t 2.588446254 -s 1 -d -1 -p AODV -e 48 -c 2 -a 0 -i 0 -k RTR
r -t 2.588446280 -s 9 -d -1 -p AODV -e 48 -c 2 -a 0 -i 0 -k RTR
r -t 2.588446280 -s 8 -d -1 -p AODV -e 48 -c 2 -a 0 -i 0 -k RTR
r -t 2.588446297 -s 11 -d -1 -p AODV -e 48 -c 2 -a 0 -i 0 -k RTR
r -t 2.588446428 -s 10 -d -1 -p AODV -e 48 -c 2 -a 0 -i 0 -k RTR
r -t 2.588446563 -s 14 -d -1 -p AODV -e 48 -c 2 -a 0 -i 0 -k RTR
+ -t 2.588551238 -s 13 -d -1 -p AODV -e 106 -c 2 -a 0 -i 0 -k MAC 
- -t 2.588551238 -s 13 -d -1 -p AODV -e 106 -c 2 -a 0 -i 0 -k MAC
h -t 2.588551238 -s 13 -d -1 -p AODV -e 106 -c 2 -a 0 -i 0 -k MAC
r -t 2.589399285 -s 9 -d -1 -p AODV -e 48 -c 2 -a 0 -i 0 -k MAC
r -t 2.589399342 -s 1 -d -1 -p AODV -e 48 -c 2 -a 0 -i 0 -k MAC
r -t 2.589399421 -s 12 -d -1 -p AODV -e 48 -c 2 -a 0 -i 0 -k MAC
r -t 2.589399728 -s 0 -d -1 -p AODV -e 48 -c 2 -a 0 -i 0 -k MAC
r -t 2.589399787 -s 4 -d -1 -p AODV -e 48 -c 2 -a 0 -i 0 -k MAC
r -t 2.589399823 -s 18 -d -1 -p AODV -e 48 -c 2 -a 0 -i 0 -k MAC
r -t 2.589399996 -s 11 -d -1 -p AODV -e 48 -c 2 -a 0 -i 0 -k MAC
r -t 2.589400000 -s 5 -d -1 -p AODV -e 48 -c 2 -a 0 -i 0 -k MAC
r -t 2.589400060 -s 17 -d -1 -p AODV -e 48 -c 2 -a 0 -i 0 -k MAC
r -t 2.589424285 -s 9 -d -1 -p AODV -e 48 -c 2 -a 0 -i 0 -k RTR
r -t 2.589424342 -s 1 -d -1 -p AODV -e 48 -c 2 -a 0 -i 0 -k RTR
r -t 2.589424421 -s 12 -d -1 -p AODV -e 48 -c 2 -a 0 -i 0 -k RTR
r -t 2.589424728 -s 0 -d -1 -p AODV -e 48 -c 2 -a 0 -i 0 -k RTR
r -t 2.589424787 -s 4 -d -1 -p AODV -e 48 -c 2 -a 0 -i 0 -k RTR
r -t 2.589424823 -s 18 -d -1 -p AODV -e 48 -c 2 -a 0 -i 0 -k RTR
r -t 2.589424996 -s 11 -d -1 -p AODV -e 48 -c 2 -a 0 -i 0 -k RTR
r -t 2.589425000 -s 5 -d -1 -p AODV -e 48 -c 2 -a 0 -i 0 -k RTR
r -t 2.589425060 -s 17 -d -1 -p AODV -e 48 -c 2 -a 0 -i 0 -k RTR
+ -t 2.589509342 -s 1 -d -1 -p AODV -e 106 -c 2 -a 0 -i 0 -k MAC 
- -t 2.589509342 -s 1 -d -1 -p AODV -e 106 -c 2 -a 0 -i 0 -k MAC
h -t 2.589509342 -s 1 -d -1 -p AODV -e 106 -c 2 -a 0 -i 0 -k MAC
+ -t 2.589677331 -s 11 -d -1 -p AODV -e 48 -c 2 -a 0 -i 0 -k RTR 
- -t 2.589677331 -s 11 -d -1 -p AODV -e 48 -c 2 -a 0 -i 0 -k RTR
h -t 2.589677331 -s 11 -d -1 -p AODV -e 48 -c 2 -a 0 -i 0 -k RTR
r -t 2.590357432 -s 9 -d -1 -p AODV -e 48 -c 2 -a 0 -i 0 -k MAC
r -t 2.590357447 -s 13 -d -1 -p AODV -e 48 -c 2 -a 0 -i 0 -k MAC
r -t 2.590357541 -s 12 -d -1 -p AODV -e 48 -c 2 -a 0 -i 0 -k MAC
r -t 2.590357847 -s 0 -d -1 -p AODV -e 48 -c 2 -a 0 -i 0 -k MAC
r -t 2.590357852 -s 4 -d -1 -p AODV -e 48 -c 2 -a 0 -i 0 -k MAC
r -t 2.590358015 -s 18 -d -1 -p AODV -e 48 -c 2 -a 0 -i 0 -k MAC
r -t 2.590358032 -s 11 -d -1 -p AODV -e 48 -c 2 -a 0 -i 0 -k MAC
r -t 2.590358035 -s 5 -d -1 -p AODV -e 48 -c 2 -a 0 -i 0 -k MAC
r -t 2.590382432 -s 9 -d -1 -p AODV -e 48 -c 2 -a 0 -i 0 -k RTR
r -t 2.590382447 -s 13 -d -1 -p AODV -e 48 -c 2 -a 0 -i 0 -k RTR
r -t 2.590382541 -s 12 -d -1 -p AODV -e 48 -c 2 -a 0 -i 0 -k RTR
r -t 2.590382847 -s 0 -d -1 -p AODV -e 48 -c 2 -a 0 -i 0 -k RTR
r -t 2.590382852 -s 4 -d -1 -p AODV -e 48 -c 2 -a 0 -i 0 -k RTR
r -t 2.590383015 -s 18 -d -1 -p AODV -e 48 -c 2 -a 0 -i 0 -k RTR
r -t 2.590383032 -s 11 -d -1 -p AODV -e 48 -c 2 -a 0 -i 0 -k RTR
r -t 2.590383035 -s 5 -d -1 -p AODV -e 48 -c 2 -a 0 -i 0 -k RTR
+ -t 2.590447541 -s 12 -d -1 -p AODV -e 106 -c 2 -a 0 -i 0 -k MAC 
- -t 2.590447541 -s 12 -d -1 -p AODV -e 106 -c 2 -a 0 -i 0 -k MAC
h -t 2.590447541 -s 12 -d -1 -p AODV -e 106 -c 2 -a 0 -i 0 -k MAC
r -t 2.591295724 -s 13 -d -1 -p AODV -e 48 -c 2 -a 0 -i 0 -k MAC
r -t 2.591295739 -s 1 -d -1 -p AODV -e 48 -c 2 -a 0 -i 0 -k MAC
r -t 2.591295762 -s 9 -d -1 -p AODV -e 48 -c 2 -a 0 -i 0 -k MAC
r -t 2.591295851 -s 0 -d -1 -p AODV -e 48 -c 2 -a 0 -i 0 -k MAC
r -t 2.591295922 -s 4 -d -1 -p AODV -e 48 -c 2 -a 0 -i 0 -k MAC
r -t 2.591296161 -s 11 -d -1 -p AODV -e 48 -c 2 -a 0 -i 0 -k MAC
r -t 2.591296263 -s 18 -d -1 -p AODV -e 48 -c 2 -a 0 -i 0 -k MAC
r -t 2.591296331 -s 10 -d -1 -p AODV -e 48 -c 2 -a 0 -i 0 -k MAC
r -t 2.591296366 -s 8 -d -1 -p AODV -e 48 -c 2 -a 0 -i 0 -k MAC
r -t 2.591320724 -s 13 -d -1 -p AODV -e 48 -c 2 -a 0 -i 0 -k RTR
r -t 2.591320739 -s 1 -d -1 -p AODV -e 48 -c 2 -a 0 -i 0 -k RTR
r -t 2.591320762 -s 9 -d -1 -p AODV -e 48 -c 2 -a 0 -i 0 -k RTR
r -t 2.591320851 -s 0 -d -1 -p AODV -e 48 -c 2 -a 0 -i 0 -k RTR
r -t 2.591320922 -s 4 -d -1 -p AODV -e 48 -c 2 -a 0 -i 0 -k RTR
r -t 2.591321161 -s 11 -d -1 -p AODV -e 48 -c 2 -a 0 -i 0 -k RTR
r -t 2.591321263 -s 18 -d -1 -p AODV -e 48 -c 2 -a 0 -i 0 -k RTR
r -t 2.591321331 -s 10 -d -1 -p AODV -e 48 -c 2 -a 0 -i 0 -k RTR
r -t 2.591321366 -s 8 -d -1 -p AODV -e 48 -c 2 -a 0 -i 0 -k RTR
+ -t 2.591525762 -s 9 -d -1 -p AODV -e 106 -c 2 -a 0 -i 0 -k MAC 
- -t 2.591525762 -s 9 -d -1 -p AODV -e 106 -c 2 -a 0 -i 0 -k MAC
h -t 2.591525762 -s 9 -d -1 -p AODV -e 106 -c 2 -a 0 -i 0 -k MAC
+ -t 2.591802645 -s 4 -d -1 -p AODV -e 48 -c 2 -a 0 -i 0 -k RTR 
- -t 2.591802645 -s 4 -d -1 -p AODV -e 48 -c 2 -a 0 -i 0 -k RTR
h -t 2.591802645 -s 4 -d -1 -p AODV -e 48 -c 2 -a 0 -i 0 -k RTR
+ -t 2.591994938 -s 5 -d -1 -p AODV -e 48 -c 2 -a 0 -i 0 -k RTR 
- -t 2.591994938 -s 5 -d -1 -p AODV -e 48 -c 2 -a 0 -i 0 -k RTR
h -t 2.591994938 -s 5 -d -1 -p AODV -e 48 -c 2 -a 0 -i 0 -k RTR
r -t 2.592373809 -s 13 -d -1 -p AODV -e 48 -c 2 -a 0 -i 0 -k MAC
r -t 2.592373852 -s 1 -d -1 -p AODV -e 48 -c 2 -a 0 -i 0 -k MAC
r -t 2.592373984 -s 12 -d -1 -p AODV -e 48 -c 2 -a 0 -i 0 -k MAC
r -t 2.592374293 -s 0 -d -1 -p AODV -e 48 -c 2 -a 0 -i 0 -k MAC
r -t 2.592374337 -s 4 -d -1 -p AODV -e 48 -c 2 -a 0 -i 0 -k MAC
r -t 2.592374345 -s 18 -d -1 -p AODV -e 48 -c 2 -a 0 -i 0 -k MAC
r -t 2.592374479 -s 5 -d -1 -p AODV -e 48 -c 2 -a 0 -i 0 -k MAC
r -t 2.592374534 -s 11 -d -1 -p AODV -e 48 -c 2 -a 0 -i 0 -k MAC
r -t 2.592374565 -s 17 -d -1 -p AODV -e 48 -c 2 -a 0 -i 0 -k MAC
r -t 2.592398809 -s 13 -d -1 -p AODV -e 48 -c 2 -a 0 -i 0 -k RTR
r -t 2.592398852 -s 1 -d -1 -p AODV -e 48 -c 2 -a 0 -i 0 -k RTR
r -t 2.592398984 -s 12 -d -1 -p AODV -e 48 -c 2 -a 0 -i 0 -k RTR
r -t 2.592399293 -s 0 -d -1 -p AODV -e 48 -c 2 -a 0 -i 0 -k RTR
r -t 2.592399337 -s 4 -d -1 -p AODV -e 48 -c 2 -a 0 -i 0 -k RTR
r -t 2.592399345 -s 18 -d -1 -p AODV -e 48 -c 2 -a 0 -i 0 -k RTR
r -t 2.592399479 -s 5 -d -1 -p AODV -e 48 -c 2 -a 0 -i 0 -k RTR
r -t 2.592399534 -s 11 -d -1 -p AODV -e 48 -c 2 -a 0 -i 0 -k RTR
r -t 2.592399565 -s 17 -d -1 -p AODV -e 48 -c 2 -a 0 -i 0 -k RTR
+ -t 2.592584479 -s 5 -d -1 -p AODV -e 106 -c 2 -a 0 -i 0 -k MAC 
- -t 2.592584479 -s 5 -d -1 -p AODV -e 106 -c 2 -a 0 -i 0 -k MAC
h -t 2.592584479 -s 5 -d -1 -p AODV -e 106 -c 2 -a 0 -i 0 -k MAC
+ -t 2.593188999 -s 14 -d -1 -p RTS -e 44 -c 2 -a 0 -i 0 -k MAC 
- -t 2.593188999 -s 14 -d -1 -p RTS -e 44 -c 2 -a 0 -i 0 -k MAC
h -t 2.593188999 -s 14 -d -1 -p RTS -e 44 -c 2 -a 0 -i 0 -k MAC
d -t 2.593190190 -s 13 -d -1 -p AODV -e 106 -c 2 -a 0 -i 0 -k MAC
d -t 2.593190236 -s 9 -d -1 -p AODV -e 106 -c 2 -a 0 -i 0 -k MAC
r -t 2.593432937 -s 7 -d -1 -p AODV -e 48 -c 2 -a 0 -i 0 -k MAC
r -t 2.593432939 -s 2 -d -1 -p AODV -e 48 -c 2 -a 0 -i 0 -k MAC
r -t 2.593433156 -s 29 -d -1 -p AODV -e 48 -c 2 -a 0 -i 0 -k MAC
r -t 2.593433156 -s 28 -d -1 -p AODV -e 48 -c 2 -a 0 -i 0 -k MAC
r -t 2.593433156 -s 27 -d -1 -p AODV -e 48 -c 2 -a 0 -i 0 -k MAC
r -t 2.593433156 -s 26 -d -1 -p AODV -e 48 -c 2 -a 0 -i 0 -k MAC
r -t 2.593433156 -s 25 -d -1 -p AODV -e 48 -c 2 -a 0 -i 0 -k MAC
r -t 2.593433156 -s 24 -d -1 -p AODV -e 48 -c 2 -a 0 -i 0 -k MAC
r -t 2.593433156 -s 23 -d -1 -p AODV -e 48 -c 2 -a 0 -i 0 -k MAC
r -t 2.593433156 -s 22 -d -1 -p AODV -e 48 -c 2 -a 0 -i 0 -k MAC
r -t 2.593433156 -s 21 -d -1 -p AODV -e 48 -c 2 -a 0 -i 0 -k MAC
r -t 2.593433156 -s 20 -d -1 -p AODV -e 48 -c 2 -a 0 -i 0 -k MAC
r -t 2.593433172 -s 1 -d -1 -p AODV -e 48 -c 2 -a 0 -i 0 -k MAC
r -t 2.593457937 -s 7 -d -1 -p AODV -e 48 -c 2 -a 0 -i 0 -k RTR
r -t 2.593457939 -s 2 -d -1 -p AODV -e 48 -c 2 -a 0 -i 0 -k RTR
r -t 2.593458156 -s 29 -d -1 -p AODV -e 48 -c 2 -a 0 -i 0 -k RTR
r -t 2.593458156 -s 28 -d -1 -p AODV -e 48 -c 2 -a 0 -i 0 -k RTR
r -t 2.593458156 -s 27 -d -1 -p AODV -e 48 -c 2 -a 0 -i 0 -k RTR
r -t 2.593458156 -s 26 -d -1 -p AODV -e 48 -c 2 -a 0 -i 0 -k RTR
r -t 2.593458156 -s 25 -d -1 -p AODV -e 48 -c 2 -a 0 -i 0 -k RTR
r -t 2.593458156 -s 24 -d -1 -p AODV -e 48 -c 2 -a 0 -i 0 -k RTR
r -t 2.593458156 -s 23 -d -1 -p AODV -e 48 -c 2 -a 0 -i 0 -k RTR
r -t 2.593458156 -s 22 -d -1 -p AODV -e 48 -c 2 -a 0 -i 0 -k RTR
r -t 2.593458156 -s 21 -d -1 -p AODV -e 48 -c 2 -a 0 -i 0 -k RTR
r -t 2.593458156 -s 20 -d -1 -p AODV -e 48 -c 2 -a 0 -i 0 -k RTR
r -t 2.593458172 -s 1 -d -1 -p AODV -e 48 -c 2 -a 0 -i 0 -k RTR
d -t 2.593541786 -s 8 -d -1 -p RTS -e 44 -c 2 -a 0 -i 0 -k MAC