M 0.00000 0 (170.23, 301.65, 0.00), (170.23, 301.65), 9.66
s 0.000000000 _0_ RTR  --- 0 AODV 44 [0 0 0 0] ------- [0:255 -1:255 1 0] [0x1 1 [0 2] 4.000000] (HELLO)
s 0.000000000 _1_ RTR  --- 0 AODV 44 [0 0 0 0] ------- [1:255 -1:255 1 0] [0x1 1 [1 2] 4.000000] (HELLO)
s 0.000000000 _2_ RTR  --- 0 AODV 44 [0 0 0 0] ------- [2:255 -1:255 1 0] [0x1 1 [2 2] 4.000000] (HELLO)
s 0.000000000 _3_ RTR  --- 0 AODV 44 [0 0 0 0] ------- [3:255 -1:255 1 0] [0x1 1 [3 2] 4.000000] (HELLO)
s 0.000000000 _4_ RTR  --- 0 AODV 44 [0 0 0 0] ------- [4:255 -1:255 1 0] [0x1 1 [4 2] 4.000000] (HELLO)
s 0.000000000 _5_ RTR  --- 0 AODV 44 [0 0 0 0] ------- [5:255 -1:255 1 0] [0x1 1 [5 2] 4.000000] (HELLO)
s 0.000000000 _6_ RTR  --- 0 AODV 44 [0 0 0 0] ------- [6:255 -1:255 1 0] [0x1 1 [6 2] 4.000000] (HELLO)
s 0.000000000 _7_ RTR  --- 0 AODV 44 [0 0 0 0] ------- [7:255 -1:255 1 0] [0x1 1 [7 2] 4.000000] (HELLO)
s 0.000000000 _8_ RTR  --- 0 AODV 44 [0 0 0 0] ------- [8:255 -1:255 1 0] [0x1 1 [8 2] 4.000000] (HELLO)
s 0.000000000 _9_ RTR  --- 0 AODV 44 [0 0 0 0] ------- [9:255 -1:255 1 0] [0x1 1 [9 2] 4.000000] (HELLO)
s 0.000115000 _2_ MAC  --- 0 AODV 102 [0 ffffffff 2 800] ------- [2:255 -1:255 1 0] [0x1 1 [2 2] 4.000000] (HELLO)
r 0.000931128 _7_ MAC  --- 0 AODV 44 [0 ffffffff 2 800] ------- [2:255 -1:255 1 0] [0x1 1 [2 2] 4.000000] (HELLO)
r 0.000931304 _9_ MAC  --- 0 AODV 44 [0 ffffffff 2 800] ------- [2:255 -1:255 1 0] [0x1 1 [2 2] 4.000000] (HELLO)
r 0.000931372 _3_ MAC  --- 0 AODV 44 [0 ffffffff 2 800] ------- [2:255 -1:255 1 0] [0x1 1 [2 2] 4.000000] (HELLO)
r 0.000931527 _6_ MAC  --- 0 AODV 44 [0 ffffffff 2 800] ------- [2:255 -1:255 1 0] [0x1 1 [2 2] 4.000000] (HELLO)
r 0.000931537 _8_ MAC  --- 0 AODV 44 [0 ffffffff 2 800] ------- [2:255 -1:255 1 0] [0x1 1 [2 2] 4.000000] (HELLO)
r 0.000931543 _1_ MAC  --- 0 AODV 44 [0 ffffffff 2 800] ------- [2:255 -1:255 1 0] [0x1 1 [2 2] 4.000000] (HELLO)
r 0.000931547 _0_ MAC  --- 0 AODV 44 [0 ffffffff 2 800] ------- [2:255 -1:255 1 0] [0x1 1 [2 2] 4.000000] (HELLO)
r 0.000931558 _4_ MAC  --- 0 AODV 44 [0 ffffffff 2 800] ------- [2:255 -1:255 1 0] [0x1 1 [2 2] 4.000000] (HELLO)
r 0.000931593 _5_ MAC  --- 0 AODV 44 [0 ffffffff 2 800] ------- [2:255 -1:255 1 0] [0x1 1 [2 2] 4.000000] (HELLO)
r 0.000956128 _7_ RTR  --- 0 AODV 44 [0 ffffffff 2 800] ------- [2:255 -1:255 1 0] [0x1 1 [2 2] 4.000000] (HELLO)
r 0.000956304 _9_ RTR  --- 0 AODV 44 [0 ffffffff 2 800] ------- [2:255 -1:255 1 0] [0x1 1 [2 2] 4.000000] (HELLO)
r 0.000956372 _3_ RTR  --- 0 AODV 44 [0 ffffffff 2 800] ------- [2:255 -1:255 1 0] [0x1 1 [2 2] 4.000000] (HELLO)
r 0.000956527 _6_ RTR  --- 0 AODV 44 [0 ffffffff 2 800] ------- [2:255 -1:255 1 0] [0x1 1 [2 2] 4.000000] (HELLO)
r 0.000956537 _8_ RTR  --- 0 AODV 44 [0 ffffffff 2 800] ------- [2:255 -1:255 1 0] [0x1 1 [2 2] 4.000000] (HELLO)
r 0.000956543 _1_ RTR  --- 0 AODV 44 [0 ffffffff 2 800] ------- [2:255 -1:255 1 0] [0x1 1 [2 2] 4.000000] (HELLO)
r 0.000956547 _0_ RTR  --- 0 AODV 44 [0 ffffffff 2 800] ------- [2:255 -1:255 1 0] [0x1 1 [2 2] 4.000000] (HELLO)
r 0.000956558 _4_ RTR  --- 0 AODV 44 [0 ffffffff 2 800] ------- [2:255 -1:255 1 0] [0x1 1 [2 2] 4.000000] (HELLO)
r 0.000956593 _5_ RTR  --- 0 AODV 44 [0 ffffffff 2 800] ------- [2:255 -1:255 1 0] [0x1 1 [2 2] 4.000000] (HELLO)
s 0.001101128 _7_ MAC  --- 0 AODV 102 [0 ffffffff 7 800] ------- [7:255 -1:255 1 0] [0x1 1 [7 2] 4.000000] (HELLO)
s 0.001101558 _4_ MAC  --- 0 AODV 102 [0 ffffffff 4 800] ------- [4:255 -1:255 1 0] [0x1 1 [4 2] 4.000000] (HELLO)
D 0.001101958 _5_ MAC  COL 0 AODV 102 [0 ffffffff 7 800] ------- [7:255 -1:255 1 0] [0x1 1 [7 2] 4.000000] (HELLO)
D 0.001102376 _6_ MAC  COL 0 AODV 102 [0 ffffffff 7 800] ------- [7:255 -1:255 1 0] [0x1 1 [7 2] 4.000000] (HELLO)
r 0.001917255 _2_ MAC  --- 0 AODV 44 [0 ffffffff 7 800] ------- [7:255 -1:255 1 0] [0x1 1 [7 2] 4.000000] (HELLO)
r 0.001917304 _9_ MAC  --- 0 AODV 44 [0 ffffffff 7 800] ------- [7:255 -1:255 1 0] [0x1 1 [7 2] 4.000000] (HELLO)
r 0.001917520 _3_ MAC  --- 0 AODV 44 [0 ffffffff 7 800] ------- [7:255 -1:255 1 0] [0x1 1 [7 2] 4.000000] (HELLO)
r 0.001917569 _8_ MAC  --- 0 AODV 44 [0 ffffffff 7 800] ------- [7:255 -1:255 1 0] [0x1 1 [7 2] 4.000000] (HELLO)
r 0.001917662 _1_ MAC  --- 0 AODV 44 [0 ffffffff 4 800] ------- [4:255 -1:255 1 0] [0x1 1 [4 2] 4.000000] (HELLO)
r 0.001917767 _0_ MAC  --- 0 AODV 44 [0 ffffffff 4 800] ------- [4:255 -1:255 1 0] [0x1 1 [4 2] 4.000000] (HELLO)
D 0.001917958 _5_ MAC  COL 0 AODV 102 [0 ffffffff 4 800] ------- [4:255 -1:255 1 0] [0x1 1 [4 2] 4.000000] (HELLO)
D 0.001918376 _6_ MAC  COL 0 AODV 102 [0 ffffffff 4 800] ------- [4:255 -1:255 1 0] [0x1 1 [4 2] 4.000000] (HELLO)
r 0.001942255 _2_ RTR  --- 0 AODV 44 [0 ffffffff 7 800] ------- [7:255 -1:255 1 0] [0x1 1 [7 2] 4.000000] (HELLO)
r 0.001942304 _9_ RTR  --- 0 AODV 44 [0 ffffffff 7 800] ------- [7:255 -1:255 1 0] [0x1 1 [7 2] 4.000000] (HELLO)
r 0.001942520 _3_ RTR  --- 0 AODV 44 [0 ffffffff 7 800] ------- [7:255 -1:255 1 0] [0x1 1 [7 2] 4.000000] (HELLO)
r 0.001942569 _8_ RTR  --- 0 AODV 44 [0 ffffffff 7 800] ------- [7:255 -1:255 1 0] [0x1 1 [7 2] 4.000000] (HELLO)
r 0.001942662 _1_ RTR  --- 0 AODV 44 [0 ffffffff 4 800] ------- [4:255 -1:255 1 0] [0x1 1 [4 2] 4.000000] (HELLO)
r 0.001942767 _0_ RTR  --- 0 AODV 44 [0 ffffffff 4 800] ------- [4:255 -1:255 1 0] [0x1 1 [4 2] 4.000000] (HELLO)
s 0.002411798 _1_ MAC  --- 0 AODV 102 [0 ffffffff 1 800] ------- [1:255 -1:255 1 0] [0x1 1 [1 2] 4.000000] (HELLO)
s 0.002412376 _6_ MAC  --- 0 AODV 102 [0 ffffffff 6 800] ------- [6:255 -1:255 1 0] [0x1 1 [6 2] 4.000000] (HELLO)
D 0.002412881 _7_ MAC  COL 0 AODV 102 [0 ffffffff 1 800] ------- [1:255 -1:255 1 0] [0x1 1 [1 2] 4.000000] (HELLO)
D 0.002412902 _2_ MAC  COL 0 AODV 102 [0 ffffffff 1 800] ------- [1:255 -1:255 1 0] [0x1 1 [1 2] 4.000000] (HELLO)
D 0.002413264 _3_ MAC  COL 0 AODV 102 [0 ffffffff 1 800] ------- [1:255 -1:255 1 0] [0x1 1 [1 2] 4.000000] (HELLO)
r 0.003227901 _4_ MAC  --- 0 AODV 44 [0 ffffffff 1 800] ------- [1:255 -1:255 1 0] [0x1 1 [1 2] 4.000000] (HELLO)
r 0.003227903 _0_ MAC  --- 0 AODV 44 [0 ffffffff 1 800] ------- [1:255 -1:255 1 0] [0x1 1 [1 2] 4.000000] (HELLO)
r 0.003228094 _5_ MAC  --- 0 AODV 44 [0 ffffffff 1 800] ------- [1:255 -1:255 1 0] [0x1 1 [1 2] 4.000000] (HELLO)
r 0.003228711 _8_ MAC  --- 0 AODV 44 [0 ffffffff 6 800] ------- [6:255 -1:255 1 0] [0x1 1 [6 2] 4.000000] (HELLO)
D 0.003228881 _7_ MAC  COL 0 AODV 102 [0 ffffffff 6 800] ------- [6:255 -1:255 1 0] [0x1 1 [6 2] 4.000000] (HELLO)
D 0.003228888 _9_ MAC  COL 0 AODV 102 [0 ffffffff 6 800] ------- [6:255 -1:255 1 0] [0x1 1 [6 2] 4.000000] (HELLO)
D 0.003228902 _2_ MAC  COL 0 AODV 102 [0 ffffffff 6 800] ------- [6:255 -1:255 1 0] [0x1 1 [6 2] 4.000000] (HELLO)
r 0.003252901 _4_ RTR  --- 0 AODV 44 [0 ffffffff 1 800] ------- [1:255 -1:255 1 0] [0x1 1 [1 2] 4.000000] (HELLO)
r 0.003252903 _0_ RTR  --- 0 AODV 44 [0 ffffffff 1 800] ------- [1:255 -1:255 1 0] [0x1 1 [1 2] 4.000000] (HELLO)
r 0.003253094 _5_ RTR  --- 0 AODV 44 [0 ffffffff 1 800] ------- [1:255 -1:255 1 0] [0x1 1 [1 2] 4.000000] (HELLO)
r 0.003253711 _8_ RTR  --- 0 AODV 44 [0 ffffffff 6 800] ------- [6:255 -1:255 1 0] [0x1 1 [6 2] 4.000000] (HELLO)
s 0.003663303 _0_ MAC  --- 0 AODV 102 [0 ffffffff 0 800] ------- [0:255 -1:255 1 0] [0x1 1 [0 2] 4.000000] (HELLO)
r 0.004479407 _1_ MAC  --- 0 AODV 44 [0 ffffffff 0 800] ------- [0:255 -1:255 1 0] [0x1 1 [0 2] 4.000000] (HELLO)
r 0.004479494 _5_ MAC  --- 0 AODV 44 [0 ffffffff 0 800] ------- [0:255 -1:255 1 0] [0x1 1 [0 2] 4.000000] (HELLO)
r 0.004479511 _4_ MAC  --- 0 AODV 44 [0 ffffffff 0 800] ------- [0:255 -1:255 1 0] [0x1 1 [0 2] 4.000000] (HELLO)
r 0.004479849 _2_ MAC  --- 0 AODV 44 [0 ffffffff 0 800] ------- [0:255 -1:255 1 0] [0x1 1 [0 2] 4.000000] (HELLO)
r 0.004479894 _3_ MAC  --- 0 AODV 44 [0 ffffffff 0 800] ------- [0:255 -1:255 1 0] [0x1 1 [0 2] 4.000000] (HELLO)
r 0.004479974 _7_ MAC  --- 0 AODV 44 [0 ffffffff 0 800] ------- [0:255 -1:255 1 0] [0x1 1 [0 2] 4.000000] (HELLO)
r 0.004504407 _1_ RTR  --- 0 AODV 44 [0 ffffffff 0 800] ------- [0:255 -1:255 1 0] [0x1 1 [0 2] 4.000000] (HELLO)
r 0.004504494 _5_ RTR  --- 0 AODV 44 [0 ffffffff 0 800] ------- [0:255 -1:255 1 0] [0x1 1 [0 2] 4.000000] (HELLO)
r 0.004504511 _4_ RTR  --- 0 AODV 44 [0 ffffffff 0 800] ------- [0:255 -1:255 1 0] [0x1 1 [0 2] 4.000000] (HELLO)
r 0.004504849 _2_ RTR  --- 0 AODV 44 [0 ffffffff 0 800] ------- [0:255 -1:255 1 0] [0x1 1 [0 2] 4.000000] (HELLO)
r 0.004504894 _3_ RTR  --- 0 AODV 44 [0 ffffffff 0 800] ------- [0:255 -1:255 1 0] [0x1 1 [0 2] 4.000000] (HELLO)
r 0.004504974 _7_ RTR  --- 0 AODV 44 [0 ffffffff 0 800] ------- [0:255 -1:255 1 0] [0x1 1 [0 2] 4.000000] (HELLO)
s 0.004629494 _5_ MAC  --- 0 AODV 102 [0 ffffffff 5 800] ------- [5:255 -1:255 1 0] [0x1 1 [5 2] 4.000000] (HELLO)
r 0.005445686 _0_ MAC  --- 0 AODV 44 [0 ffffffff 5 800] ------- [5:255 -1:255 1 0] [0x1 1 [5 2] 4.000000] (HELLO)
r 0.005445790 _1_ MAC  --- 0 AODV 44 [0 ffffffff 5 800] ------- [5:255 -1:255 1 0] [0x1 1 [5 2] 4.000000] (HELLO)
r 0.005445894 _4_ MAC  --- 0 AODV 44 [0 ffffffff 5 800] ------- [5:255 -1:255 1 0] [0x1 1 [5 2] 4.000000] (HELLO)
r 0.005446005 _3_ MAC  --- 0 AODV 44 [0 ffffffff 5 800] ------- [5:255 -1:255 1 0] [0x1 1 [5 2] 4.000000] (HELLO)
r 0.005446087 _2_ MAC  --- 0 AODV 44 [0 ffffffff 5 800] ------- [5:255 -1:255 1 0] [0x1 1 [5 2] 4.000000] (HELLO)
r 0.005446199 _7_ MAC  --- 0 AODV 44 [0 ffffffff 5 800] ------- [5:255 -1:255 1 0] [0x1 1 [5 2] 4.000000] (HELLO)
r 0.005470686 _0_ RTR  --- 0 AODV 44 [0 ffffffff 5 800] ------- [5:255 -1:255 1 0] [0x1 1 [5 2] 4.000000] (HELLO)
r 0.005470790 _1_ RTR  --- 0 AODV 44 [0 ffffffff 5 800] ------- [5:255 -1:255 1 0] [0x1 1 [5 2] 4.000000] (HELLO)
r 0.005470894 _4_ RTR  --- 0 AODV 44 [0 ffffffff 5 800] ------- [5:255 -1:255 1 0] [0x1 1 [5 2] 4.000000] (HELLO)
r 0.005471005 _3_ RTR  --- 0 AODV 44 [0 ffffffff 5 800] ------- [5:255 -1:255 1 0] [0x1 1 [5 2] 4.000000] (HELLO)
r 0.005471087 _2_ RTR  --- 0 AODV 44 [0 ffffffff 5 800] ------- [5:255 -1:255 1 0] [0x1 1 [5 2] 4.000000] (HELLO)
r 0.005471199 _7_ RTR  --- 0 AODV 44 [0 ffffffff 5 800] ------- [5:255 -1:255 1 0] [0x1 1 [5 2] 4.000000] (HELLO)
s 0.005676005 _3_ MAC  --- 0 AODV 102 [0 ffffffff 3 800] ------- [3:255 -1:255 1 0] [0x1 1 [3 2] 4.000000] (HELLO)
r 0.006492377 _2_ MAC  --- 0 AODV 44 [0 ffffffff 3 800] ------- [3:255 -1:255 1 0] [0x1 1 [3 2] 4.000000] (HELLO)
r 0.006492398 _7_ MAC  --- 0 AODV 44 [0 ffffffff 3 800] ------- [3:255 -1:255 1 0] [0x1 1 [3 2] 4.000000] (HELLO)
r 0.006492496 _9_ MAC  --- 0 AODV 44 [0 ffffffff 3 800] ------- [3:255 -1:255 1 0] [0x1 1 [3 2] 4.000000] (HELLO)
r 0.006492516 _5_ MAC  --- 0 AODV 44 [0 ffffffff 3 800] ------- [3:255 -1:255 1 0] [0x1 1 [3 2] 4.000000] (HELLO)
r 0.006492597 _0_ MAC  --- 0 AODV 44 [0 ffffffff 3 800] ------- [3:255 -1:255 1 0] [0x1 1 [3 2] 4.000000] (HELLO)
r 0.006492656 _1_ MAC  --- 0 AODV 44 [0 ffffffff 3 800] ------- [3:255 -1:255 1 0] [0x1 1 [3 2] 4.000000] (HELLO)
r 0.006492724 _4_ MAC  --- 0 AODV 44 [0 ffffffff 3 800] ------- [3:255 -1:255 1 0] [0x1 1 [3 2] 4.000000] (HELLO)
r 0.006492820 _8_ MAC  --- 0 AODV 44 [0 ffffffff 3 800] ------- [3:255 -1:255 1 0] [0x1 1 [3 2] 4.000000] (HELLO)
r 0.006517377 _2_ RTR  --- 0 AODV 44 [0 ffffffff 3 800] ------- [3:255 -1:255 1 0] [0x1 1 [3 2] 4.000000] (HELLO)
r 0.006517398 _7_ RTR  --- 0 AODV 44 [0 ffffffff 3 800] ------- [3:255 -1:255 1 0] [0x1 1 [3 2] 4.000000] (HELLO)
r 0.006517496 _9_ RTR  --- 0 AODV 44 [0 ffffffff 3 800] ------- [3:255 -1:255 1 0] [0x1 1 [3 2] 4.000000] (HELLO)
r 0.006517516 _5_ RTR  --- 0 AODV 44 [0 ffffffff 3 800] ------- [3:255 -1:255 1 0] [0x1 1 [3 2] 4.000000] (HELLO)
r 0.006517597 _0_ RTR  --- 0 AODV 44 [0 ffffffff 3 800] ------- [3:255 -1:255 1 0] [0x1 1 [3 2] 4.000000] (HELLO)
r 0.006517656 _1_ RTR  --- 0 AODV 44 [0 ffffffff 3 800] ------- [3:255 -1:255 1 0] [0x1 1 [3 2] 4.000000] (HELLO)
r 0.006517724 _4_ RTR  --- 0 AODV 44 [0 ffffffff 3 800] ------- [3:255 -1:255 1 0] [0x1 1 [3 2] 4.000000] (HELLO)
r 0.006517820 _8_ RTR  --- 0 AODV 44 [0 ffffffff 3 800] ------- [3:255 -1:255 1 0] [0x1 1 [3 2] 4.000000] (HELLO)
s 0.006622496 _9_ MAC  --- 0 AODV 102 [0 ffffffff 9 800] ------- [9:255 -1:255 1 0] [0x1 1 [9 2] 4.000000] (HELLO)
r 0.007438673 _7_ MAC  --- 0 AODV 44 [0 ffffffff 9 800] ------- [9:255 -1:255 1 0] [0x1 1 [9 2] 4.000000] (HELLO)
r 0.007438800 _2_ MAC  --- 0 AODV 44 [0 ffffffff 9 800] ------- [9:255 -1:255 1 0] [0x1 1 [9 2] 4.000000] (HELLO)
r 0.007438827 _8_ MAC  --- 0 AODV 44 [0 ffffffff 9 800] ------- [9:255 -1:255 1 0] [0x1 1 [9 2] 4.000000] (HELLO)
r 0.007438987 _3_ MAC  --- 0 AODV 44 [0 ffffffff 9 800] ------- [9:255 -1:255 1 0] [0x1 1 [9 2] 4.000000] (HELLO)
r 0.007439008 _6_ MAC  --- 0 AODV 44 [0 ffffffff 9 800] ------- [9:255 -1:255 1 0] [0x1 1 [9 2] 4.000000] (HELLO)
r 0.007463673 _7_ RTR  --- 0 AODV 44 [0 ffffffff 9 800] ------- [9:255 -1:255 1 0] [0x1 1 [9 2] 4.000000] (HELLO)
r 0.007463800 _2_ RTR  --- 0 AODV 44 [0 ffffffff 9 800] ------- [9:255 -1:255 1 0] [0x1 1 [9 2] 4.000000] (HELLO)
r 0.007463827 _8_ RTR  --- 0 AODV 44 [0 ffffffff 9 800] ------- [9:255 -1:255 1 0] [0x1 1 [9 2] 4.000000] (HELLO)
r 0.007463987 _3_ RTR  --- 0 AODV 44 [0 ffffffff 9 800] ------- [9:255 -1:255 1 0] [0x1 1 [9 2] 4.000000] (HELLO)
r 0.007464008 _6_ RTR  --- 0 AODV 44 [0 ffffffff 9 800] ------- [9:255 -1:255 1 0] [0x1 1 [9 2] 4.000000] (HELLO)
s 0.007628827 _8_ MAC  --- 0 AODV 102 [0 ffffffff 8 800] ------- [8:255 -1:255 1 0] [0x1 1 [8 2] 4.000000] (HELLO)
r 0.008445157 _9_ MAC  --- 0 AODV 44 [0 ffffffff 8 800] ------- [8:255 -1:255 1 0] [0x1 1 [8 2] 4.000000] (HELLO)
r 0.008445162 _6_ MAC  --- 0 AODV 44 [0 ffffffff 8 800] ------- [8:255 -1:255 1 0] [0x1 1 [8 2] 4.000000] (HELLO)
r 0.008445268 _7_ MAC  --- 0 AODV 44 [0 ffffffff 8 800] ------- [8:255 -1:255 1 0] [0x1 1 [8 2] 4.000000] (HELLO)
r 0.008445364 _2_ MAC  --- 0 AODV 44 [0 ffffffff 8 800] ------- [8:255 -1:255 1 0] [0x1 1 [8 2] 4.000000] (HELLO)
r 0.008445641 _3_ MAC  --- 0 AODV 44 [0 ffffffff 8 800] ------- [8:255 -1:255 1 0] [0x1 1 [8 2] 4.000000] (HELLO)
r 0.008470157 _9_ RTR  --- 0 AODV 44 [0 ffffffff 8 800] ------- [8:255 -1:255 1 0] [0x1 1 [8 2] 4.000000] (HELLO)
r 0.008470162 _6_ RTR  --- 0 AODV 44 [0 ffffffff 8 800] ------- [8:255 -1:255 1 0] [0x1 1 [8 2] 4.000000] (HELLO)
r 0.008470268 _7_ RTR  --- 0 AODV 44 [0 ffffffff 8 800] ------- [8:255 -1:255 1 0] [0x1 1 [8 2] 4.000000] (HELLO)
r 0.008470364 _2_ RTR  --- 0 AODV 44 [0 ffffffff 8 800] ------- [8:255 -1:255 1 0] [0x1 1 [8 2] 4.000000] (HELLO)
r 0.008470641 _3_ RTR  --- 0 AODV 44 [0 ffffffff 8 800] ------- [8:255 -1:255 1 0] [0x1 1 [8 2] 4.000000] (HELLO)
s 0.750169789 _0_ RTR  --- 0 AODV 44 [0 0 0 0] ------- [0:255 -1:255 1 0] [0x1 1 [0 12] 4.000000] (HELLO)
s 0.750284789 _0_ MAC  --- 0 AODV 102 [0 ffffffff 0 800] ------- [0:255 -1:255 1 0] [0x1 1 [0 12] 4.000000] (HELLO)
r 0.751100893 _1_ MAC  --- 0 AODV 44 [0 ffffffff 0 800] ------- [0:255 -1:255 1 0] [0x1 1 [0 12] 4.000000] (HELLO)
r 0.751100980 _5_ MAC  --- 0 AODV 44 [0 ffffffff 0 800] ------- [0:255 -1:255 1 0] [0x1 1 [0 12] 4.000000] (HELLO)
r 0.751100997 _4_ MAC  --- 0 AODV 44 [0 ffffffff 0 800] ------- [0:255 -1:255 1 0] [0x1 1 [0 12] 4.000000] (HELLO)
r 0.751101335 _2_ MAC  --- 0 AODV 44 [0 ffffffff 0 800] ------- [0:255 -1:255 1 0] [0x1 1 [0 12] 4.000000] (HELLO)
r 0.751101380 _3_ MAC  --- 0 AODV 44 [0 ffffffff 0 800] ------- [0:255 -1:255 1 0] [0x1 1 [0 12] 4.000000] (HELLO)
r 0.751101460 _7_ MAC  --- 0 AODV 44 [0 ffffffff 0 800] ------- [0:255 -1:255 1 0] [0x1 1 [0 12] 4.000000] (HELLO)
r 0.751125893 _1_ RTR  --- 0 AODV 44 [0 ffffffff 0 800] ------- [0:255 -1:255 1 0] [0x1 1 [0 12] 4.000000] (HELLO)
r 0.751125980 _5_ RTR  --- 0 AODV 44 [0 ffffffff 0 800] ------- [0:255 -1:255 1 0] [0x1 1 [0 12] 4.000000] (HELLO)
r 0.751125997 _4_ RTR  --- 0 AODV 44 [0 ffffffff 0 800] ------- [0:255 -1:255 1 0] [0x1 1 [0 12] 4.000000] (HELLO)
r 0.751126335 _2_ RTR  --- 0 AODV 44 [0 ffffffff 0 800] ------- [0:255 -1:255 1 0] [0x1 1 [0 12] 4.000000] (HELLO)
r 0.751126380 _3_ RTR  --- 0 AODV 44 [0 ffffffff 0 800] ------- [0:255 -1:255 1 0] [0x1 1 [0 12] 4.000000] (HELLO)
r 0.751126460 _7_ RTR  --- 0 AODV 44 [0 ffffffff 0 800] ------- [0:255 -1:255 1 0] [0x1 1 [0 12] 4.000000] (HELLO)
s 0.757102330 _2_ RTR  --- 0 AODV 44 [0 0 0 0] ------- [2:255 -1:255 1 0] [0x1 1 [2 14] 4.000000] (HELLO)
s 0.757317330 _2_ MAC  --- 0 AODV 102 [0 ffffffff 2 800] ------- [2:255 -1:255 1 0] [0x1 1 [2 14] 4.000000] (HELLO)
r 0.758133458 _7_ MAC  --- 0 AODV 44 [0 ffffffff 2 800] ------- [2:255 -1:255 1 0] [0x1 1 [2 14] 4.000000] (HELLO)
r 0.758133634 _9_ MAC  --- 0 AODV 44 [0 ffffffff 2 800] ------- [2:255 -1:255 1 0] [0x1 1 [2 14] 4.000000] (HELLO)
r 0.758133702 _3_ MAC  --- 0 AODV 44 [0 ffffffff 2 800] ------- [2:255 -1:255 1 0] [0x1 1 [2 14] 4.000000] (HELLO)
r 0.758133857 _6_ MAC  --- 0 AODV 44 [0 ffffffff 2 800] ------- [2:255 -1:255 1 0] [0x1 1 [2 14] 4.000000] (HELLO)
r 0.758133868 _8_ MAC  --- 0 AODV 44 [0 ffffffff 2 800] ------- [2:255 -1:255 1 0] [0x1 1 [2 14] 4.000000] (HELLO)
r 0.758133873 _1_ MAC  --- 0 AODV 44 [0 ffffffff 2 800] ------- [2:255 -1:255 1 0] [0x1 1 [2 14] 4.000000] (HELLO)
r 0.758133877 _0_ MAC  --- 0 AODV 44 [0 ffffffff 2 800] ------- [2:255 -1:255 1 0] [0x1 1 [2 14] 4.000000] (HELLO)
r 0.758133889 _4_ MAC  --- 0 AODV 44 [0 ffffffff 2 800] ------- [2:255 -1:255 1 0] [0x1 1 [2 14] 4.000000] (HELLO)
r 0.758133923 _5_ MAC  --- 0 AODV 44 [0 ffffffff 2 800] ------- [2:255 -1:255 1 0] [0x1 1 [2 14] 4.000000] (HELLO)
r 0.758158458 _7_ RTR  --- 0 AODV 44 [0 ffffffff 2 800] ------- [2:255 -1:255 1 0] [0x1 1 [2 14] 4.000000] (HELLO)
r 0.758158634 _9_ RTR  --- 0 AODV 44 [0 ffffffff 2 800] ------- [2:255 -1:255 1 0] [0x1 1 [2 14] 4.000000] (HELLO)
r 0.758158702 _3_ RTR  --- 0 AODV 44 [0 ffffffff 2 800] ------- [2:255 -1:255 1 0] [0x1 1 [2 14] 4.000000] (HELLO)
r 0.758158857 _6_ RTR  --- 0 AODV 44 [0 ffffffff 2 800] ------- [2:255 -1:255 1 0] [0x1 1 [2 14] 4.000000] (HELLO)
r 0.758158868 _8_ RTR  --- 0 AODV 44 [0 ffffffff 2 800] ------- [2:255 -1:255 1 0] [0x1 1 [2 14] 4.000000] (HELLO)
r 0.758158873 _1_ RTR  --- 0 AODV 44 [0 ffffffff 2 800] ------- [2:255 -1:255 1 0] [0x1 1 [2 14] 4.000000] (HELLO)
r 0.758158877 _0_ RTR  --- 0 AODV 44 [0 ffffffff 2 800] ------- [2:255 -1:255 1 0] [0x1 1 [2 14] 4.000000] (HELLO)
r 0.758158889 _4_ RTR  --- 0 AODV 44 [0 ffffffff 2 800] ------- [2:255 -1:255 1 0] [0x1 1 [2 14] 4.000000] (HELLO)
r 0.758158923 _5_ RTR  --- 0 AODV 44 [0 ffffffff 2 800] ------- [2:255 -1:255 1 0] [0x1 1 [2 14] 4.000000] (HELLO)
s 0.794061336 _3_ RTR  --- 0 AODV 44 [0 0 0 0] ------- [3:255 -1:255 1 0] [0x1 1 [3 14] 4.000000] (HELLO)
s 0.794336336 _3_ MAC  --- 0 AODV 102 [0 ffffffff 3 800] ------- [3:255 -1:255 1 0] [0x1 1 [3 14] 4.000000] (HELLO)
r 0.795152707 _2_ MAC  --- 0 AODV 44 [0 ffffffff 3 800] ------- [3:255 -1:255 1 0] [0x1 1 [3 14] 4.000000] (HELLO)
r 0.795152728 _7_ MAC  --- 0 AODV 44 [0 ffffffff 3 800] ------- [3:255 -1:255 1 0] [0x1 1 [3 14] 4.000000] (HELLO)
r 0.795152827 _9_ MAC  --- 0 AODV 44 [0 ffffffff 3 800] ------- [3:255 -1:255 1 0] [0x1 1 [3 14] 4.000000] (HELLO)
r 0.795152847 _5_ MAC  --- 0 AODV 44 [0 ffffffff 3 800] ------- [3:255 -1:255 1 0] [0x1 1 [3 14] 4.000000] (HELLO)
r 0.795152927 _0_ MAC  --- 0 AODV 44 [0 ffffffff 3 800] ------- [3:255 -1:255 1 0] [0x1 1 [3 14] 4.000000] (HELLO)
r 0.795152986 _1_ MAC  --- 0 AODV 44 [0 ffffffff 3 800] ------- [3:255 -1:255 1 0] [0x1 1 [3 14] 4.000000] (HELLO)
r 0.795153055 _4_ MAC  --- 0 AODV 44 [0 ffffffff 3 800] ------- [3:255 -1:255 1 0] [0x1 1 [3 14] 4.000000] (HELLO)
r 0.795153150 _8_ MAC  --- 0 AODV 44 [0 ffffffff 3 800] ------- [3:255 -1:255 1 0] [0x1 1 [3 14] 4.000000] (HELLO)
r 0.795177707 _2_ RTR  --- 0 AODV 44 [0 ffffffff 3 800] ------- [3:255 -1:255 1 0] [0x1 1 [3 14] 4.000000] (HELLO)
r 0.795177728 _7_ RTR  --- 0 AODV 44 [0 ffffffff 3 800] ------- [3:255 -1:255 1 0] [0x1 1 [3 14] 4.000000] (HELLO)
r 0.795177827 _9_ RTR  --- 0 AODV 44 [0 ffffffff 3 800] ------- [3:255 -1:255 1 0] [0x1 1 [3 14] 4.000000] (HELLO)
r 0.795177847 _5_ RTR  --- 0 AODV 44 [0 ffffffff 3 800] ------- [3:255 -1:255 1 0] [0x1 1 [3 14] 4.000000] (HELLO)
r 0.795177927 _0_ RTR  --- 0 AODV 44 [0 ffffffff 3 800] ------- [3:255 -1:255 1 0] [0x1 1 [3 14] 4.000000] (HELLO)
r 0.795177986 _1_ RTR  --- 0 AODV 44 [0 ffffffff 3 800] ------- [3:255 -1:255 1 0] [0x1 1 [3 14] 4.000000] (HELLO)
r 0.795178055 _4_ RTR  --- 0 AODV 44 [0 ffffffff 3 800] ------- [3:255 -1:255 1 0] [0x1 1 [3 14] 4.000000] (HELLO)
r 0.795178150 _8_ RTR  --- 0 AODV 44 [0 ffffffff 3 800] ------- [3:255 -1:255 1 0] [0x1 1 [3 14] 4.000000] (HELLO)
s 0.867300876 _8_ RTR  --- 0 AODV 44 [0 0 0 0] ------- [8:255 -1:255 1 0] [0x1 1 [8 12] 4.000000] (HELLO)
s 0.867595876 _8_ MAC  --- 0 AODV 102 [0 ffffffff 8 800] ------- [8:255 -1:255 1 0] [0x1 1 [8 12] 4.000000] (HELLO)
r 0.868412206 _9_ MAC  --- 0 AODV 44 [0 ffffffff 8 800] ------- [8:255 -1:255 1 0] [0x1 1 [8 12] 4.000000] (HELLO)
r 0.868412211 _6_ MAC  --- 0 AODV 44 [0 ffffffff 8 800] ------- [8:255 -1:255 1 0] [0x1 1 [8 12] 4.000000] (HELLO)
r 0.868412317 _7_ MAC  --- 0 AODV 44 [0 ffffffff 8 800] ------- [8:255 -1:255 1 0] [0x1 1 [8 12] 4.000000] (HELLO)
r 0.868412413 _2_ MAC  --- 0 AODV 44 [0 ffffffff 8 800] ------- [8:255 -1:255 1 0] [0x1 1 [8 12] 4.000000] (HELLO)
r 0.868412690 _3_ MAC  --- 0 AODV 44 [0 ffffffff 8 800] ------- [8:255 -1:255 1 0] [0x1 1 [8 12] 4.000000] (HELLO)
r 0.868437206 _9_ RTR  --- 0 AODV 44 [0 ffffffff 8 800] ------- [8:255 -1:255 1 0] [0x1 1 [8 12] 4.000000] (HELLO)
r 0.868437211 _6_ RTR  --- 0 AODV 44 [0 ffffffff 8 800] ------- [8:255 -1:255 1 0] [0x1 1 [8 12] 4.000000] (HELLO)
r 0.868437317 _7_ RTR  --- 0 AODV 44 [0 ffffffff 8 800] ------- [8:255 -1:255 1 0] [0x1 1 [8 12] 4.000000] (HELLO)
r 0.868437413 _2_ RTR  --- 0 AODV 44 [0 ffffffff 8 800] ------- [8:255 -1:255 1 0] [0x1 1 [8 12] 4.000000] (HELLO)
r 0.868437690 _3_ RTR  --- 0 AODV 44 [0 ffffffff 8 800] ------- [8:255 -1:255 1 0] [0x1 1 [8 12] 4.000000] (HELLO)
s 0.906480886 _6_ RTR  --- 0 AODV 44 [0 0 0 0] ------- [6:255 -1:255 1 0] [0x1 1 [6 8] 4.000000] (HELLO)
s 0.906615886 _6_ MAC  --- 0 AODV 102 [0 ffffffff 6 800] ------- [6:255 -1:255 1 0] [0x1 1 [6 8] 4.000000] (HELLO)
r 0.907432221 _8_ MAC  --- 0 AODV 44 [0 ffffffff 6 800] ------- [6:255 -1:255 1 0] [0x1 1 [6 8] 4.000000] (HELLO)
r 0.907432390 _7_ MAC  --- 0 AODV 44 [0 ffffffff 6 800] ------- [6:255 -1:255 1 0] [0x1 1 [6 8] 4.000000] (HELLO)
r 0.907432397 _9_ MAC  --- 0 AODV 44 [0 ffffffff 6 800] ------- [6:255 -1:255 1 0] [0x1 1 [6 8] 4.000000] (HELLO)
r 0.907432412 _2_ MAC  --- 0 AODV 44 [0 ffffffff 6 800] ------- [6:255 -1:255 1 0] [0x1 1 [6 8] 4.000000] (HELLO)
r 0.907432703 _4_ MAC  --- 0 AODV 44 [0 ffffffff 6 800] ------- [6:255 -1:255 1 0] [0x1 1 [6 8] 4.000000] (HELLO)
r 0.907457221 _8_ RTR  --- 0 AODV 44 [0 ffffffff 6 800] ------- [6:255 -1:255 1 0] [0x1 1 [6 8] 4.000000] (HELLO)
r 0.907457390 _7_ RTR  --- 0 AODV 44 [0 ffffffff 6 800] ------- [6:255 -1:255 1 0] [0x1 1 [6 8] 4.000000] (HELLO)
r 0.907457397 _9_ RTR  --- 0 AODV 44 [0 ffffffff 6 800] ------- [6:255 -1:255 1 0] [0x1 1 [6 8] 4.000000] (HELLO)
r 0.907457412 _2_ RTR  --- 0 AODV 44 [0 ffffffff 6 800] ------- [6:255 -1:255 1 0] [0x1 1 [6 8] 4.000000] (HELLO)
r 0.907457703 _4_ RTR  --- 0 AODV 44 [0 ffffffff 6 800] ------- [6:255 -1:255 1 0] [0x1 1 [6 8] 4.000000] (HELLO)
s 0.970586691 _4_ RTR  --- 0 AODV 44 [0 0 0 0] ------- [4:255 -1:255 1 0] [0x1 1 [4 14] 4.000000] (HELLO)
s 0.971161691 _4_ MAC  --- 0 AODV 102 [0 ffffffff 4 800] ------- [4:255 -1:255 1 0] [0x1 1 [4 14] 4.000000] (HELLO)
r 0.971977795 _1_ MAC  --- 0 AODV 44 [0 ffffffff 4 800] ------- [4:255 -1:255 1 0] [0x1 1 [4 14] 4.000000] (HELLO)
r 0.971977899 _0_ MAC  --- 0 AODV 44 [0 ffffffff 4 800] ------- [4:255 -1:255 1 0] [0x1 1 [4 14] 4.000000] (HELLO)
r 0.971978091 _5_ MAC  --- 0 AODV 44 [0 ffffffff 4 800] ------- [4:255 -1:255 1 0] [0x1 1 [4 14] 4.000000] (HELLO)
r 0.971978249 _2_ MAC  --- 0 AODV 44 [0 ffffffff 4 800] ------- [4:255 -1:255 1 0] [0x1 1 [4 14] 4.000000] (HELLO)
r 0.971978376 _7_ MAC  --- 0 AODV 44 [0 ffffffff 4 800] ------- [4:255 -1:255 1 0] [0x1 1 [4 14] 4.000000] (HELLO)
r 0.971978410 _3_ MAC  --- 0 AODV 44 [0 ffffffff 4 800] ------- [4:255 -1:255 1 0] [0x1 1 [4 14] 4.000000] (HELLO)
r 0.971978508 _6_ MAC  --- 0 AODV 44 [0 ffffffff 4 800] ------- [4:255 -1:255 1 0] [0x1 1 [4 14] 4.000000] (HELLO)
r 0.972002795 _1_ RTR  --- 0 AODV 44 [0 ffffffff 4 800] ------- [4:255 -1:255 1 0] [0x1 1 [4 14] 4.000000] (HELLO)
r 0.972002899 _0_ RTR  --- 0 AODV 44 [0 ffffffff 4 800] ------- [4:255 -1:255 1 0] [0x1 1 [4 14] 4.000000] (HELLO)
r 0.972003091 _5_ RTR  --- 0 AODV 44 [0 ffffffff 4 800] ------- [4:255 -1:255 1 0] [0x1 1 [4 14] 4.000000] (HELLO)
r 0.972003249 _2_ RTR  --- 0 AODV 44 [0 ffffffff 4 800] ------- [4:255 -1:255 1 0] [0x1 1 [4 14] 4.000000] (HELLO)
r 0.972003376 _7_ RTR  --- 0 AODV 44 [0 ffffffff 4 800] ------- [4:255 -1:255 1 0] [0x1 1 [4 14] 4.000000] (HELLO)
r 0.972003410 _3_ RTR  --- 0 AODV 44 [0 ffffffff 4 800] ------- [4:255 -1:255 1 0] [0x1 1 [4 14] 4.000000] (HELLO)
r 0.972003508 _6_ RTR  --- 0 AODV 44 [0 ffffffff 4 800] ------- [4:255 -1:255 1 0] [0x1 1 [4 14] 4.000000] (HELLO)
M 1.00000 0 (170.23, 301.65, 0.00), (159.77, 301.65), 10.46
M 1.00000 1 (138.79, 301.65, 0.00), (138.79, 301.65), 20.00
s 1.027940358 _1_ RTR  --- 0 AODV 44 [0 0 0 0] ------- [1:255 -1:255 1 0] [0x1 1 [1 12] 4.000000] (HELLO)
s 1.028295358 _1_ MAC  --- 0 AODV 102 [0 ffffffff 1 800] ------- [1:255 -1:255 1 0] [0x1 1 [1 12] 4.000000] (HELLO)
r 1.029111462 _4_ MAC  --- 0 AODV 44 [0 ffffffff 1 800] ------- [1:255 -1:255 1 0] [0x1 1 [1 12] 4.000000] (HELLO)
r 1.029111462 _0_ MAC  --- 0 AODV 44 [0 ffffffff 1 800] ------- [1:255 -1:255 1 0] [0x1 1 [1 12] 4.000000] (HELLO)
r 1.029111654 _5_ MAC  --- 0 AODV 44 [0 ffffffff 1 800] ------- [1:255 -1:255 1 0] [0x1 1 [1 12] 4.000000] (HELLO)
r 1.029111901 _2_ MAC  --- 0 AODV 44 [0 ffffffff 1 800] ------- [1:255 -1:255 1 0] [0x1 1 [1 12] 4.000000] (HELLO)
r 1.029112008 _3_ MAC  --- 0 AODV 44 [0 ffffffff 1 800] ------- [1:255 -1:255 1 0] [0x1 1 [1 12] 4.000000] (HELLO)
r 1.029112028 _7_ MAC  --- 0 AODV 44 [0 ffffffff 1 800] ------- [1:255 -1:255 1 0] [0x1 1 [1 12] 4.000000] (HELLO)
r 1.029136462 _4_ RTR  --- 0 AODV 44 [0 ffffffff 1 800] ------- [1:255 -1:255 1 0] [0x1 1 [1 12] 4.000000] (HELLO)
r 1.029136462 _0_ RTR  --- 0 AODV 44 [0 ffffffff 1 800] ------- [1:255 -1:255 1 0] [0x1 1 [1 12] 4.000000] (HELLO)
r 1.029136654 _5_ RTR  --- 0 AODV 44 [0 ffffffff 1 800] ------- [1:255 -1:255 1 0] [0x1 1 [1 12] 4.000000] (HELLO)
r 1.029136901 _2_ RTR  --- 0 AODV 44 [0 ffffffff 1 800] ------- [1:255 -1:255 1 0] [0x1 1 [1 12] 4.000000] (HELLO)
r 1.029137008 _3_ RTR  --- 0 AODV 44 [0 ffffffff 1 800] ------- [1:255 -1:255 1 0] [0x1 1 [1 12] 4.000000] (HELLO)
r 1.029137028 _7_ RTR  --- 0 AODV 44 [0 ffffffff 1 800] ------- [1:255 -1:255 1 0] [0x1 1 [1 12] 4.000000] (HELLO)
s 1.069432572 _9_ RTR  --- 0 AODV 44 [0 0 0 0] ------- [9:255 -1:255 1 0] [0x1 1 [9 12] 4.000000] (HELLO)
s 1.069727572 _9_ MAC  --- 0 AODV 102 [0 ffffffff 9 800] ------- [9:255 -1:255 1 0] [0x1 1 [9 12] 4.000000] (HELLO)
r 1.070543748 _7_ MAC  --- 0 AODV 44 [0 ffffffff 9 800] ------- [9:255 -1:255 1 0] [0x1 1 [9 12] 4.000000] (HELLO)
r 1.070543876 _2_ MAC  --- 0 AODV 44 [0 ffffffff 9 800] ------- [9:255 -1:255 1 0] [0x1 1 [9 12] 4.000000] (HELLO)
r 1.070543902 _8_ MAC  --- 0 AODV 44 [0 ffffffff 9 800] ------- [9:255 -1:255 1 0] [0x1 1 [9 12] 4.000000] (HELLO)
r 1.070544063 _3_ MAC  --- 0 AODV 44 [0 ffffffff 9 800] ------- [9:255 -1:255 1 0] [0x1 1 [9 12] 4.000000] (HELLO)
r 1.070544083 _6_ MAC  --- 0 AODV 44 [0 ffffffff 9 800] ------- [9:255 -1:255 1 0] [0x1 1 [9 12] 4.000000] (HELLO)
r 1.070568748 _7_ RTR  --- 0 AODV 44 [0 ffffffff 9 800] ------- [9:255 -1:255 1 0] [0x1 1 [9 12] 4.000000] (HELLO)
r 1.070568876 _2_ RTR  --- 0 AODV 44 [0 ffffffff 9 800] ------- [9:255 -1:255 1 0] [0x1 1 [9 12] 4.000000] (HELLO)
r 1.070568902 _8_ RTR  --- 0 AODV 44 [0 ffffffff 9 800] ------- [9:255 -1:255 1 0] [0x1 1 [9 12] 4.000000] (HELLO)
r 1.070569063 _3_ RTR  --- 0 AODV 44 [0 ffffffff 9 800] ------- [9:255 -1:255 1 0] [0x1 1 [9 12] 4.000000] (HELLO)
r 1.070569083 _6_ RTR  --- 0 AODV 44 [0 ffffffff 9 800] ------- [9:255 -1:255 1 0] [0x1 1 [9 12] 4.000000] (HELLO)
s 1.149577727 _5_ RTR  --- 0 AODV 44 [0 0 0 0] ------- [5:255 -1:255 1 0] [0x1 1 [5 12] 4.000000] (HELLO)
s 1.149872727 _5_ MAC  --- 0 AODV 102 [0 ffffffff 5 800] ------- [5:255 -1:255 1 0] [0x1 1 [5 12] 4.000000] (HELLO)
r 1.150688923 _0_ MAC  --- 0 AODV 44 [0 ffffffff 5 800] ------- [5:255 -1:255 1 0] [0x1 1 [5 12] 4.000000] (HELLO)
r 1.150689023 _1_ MAC  --- 0 AODV 44 [0 ffffffff 5 800] ------- [5:255 -1:255 1 0] [0x1 1 [5 12] 4.000000] (HELLO)
r 1.150689127 _4_ MAC  --- 0 AODV 44 [0 ffffffff 5 800] ------- [5:255 -1:255 1 0] [0x1 1 [5 12] 4.000000] (HELLO)
r 1.150689238 _3_ MAC  --- 0 AODV 44 [0 ffffffff 5 800] ------- [5:255 -1:255 1 0] [0x1 1 [5 12] 4.000000] (HELLO)
r 1.150689320 _2_ MAC  --- 0 AODV 44 [0 ffffffff 5 800] ------- [5:255 -1:255 1 0] [0x1 1 [5 12] 4.000000] (HELLO)
r 1.150689432 _7_ MAC  --- 0 AODV 44 [0 ffffffff 5 800] ------- [5:255 -1:255 1 0] [0x1 1 [5 12] 4.000000] (HELLO)
r 1.150713923 _0_ RTR  --- 0 AODV 44 [0 ffffffff 5 800] ------- [5:255 -1:255 1 0] [0x1 1 [5 12] 4.000000] (HELLO)
r 1.150714023 _1_ RTR  --- 0 AODV 44 [0 ffffffff 5 800] ------- [5:255 -1:255 1 0] [0x1 1 [5 12] 4.000000] (HELLO)
r 1.150714127 _4_ RTR  --- 0 AODV 44 [0 ffffffff 5 800] ------- [5:255 -1:255 1 0] [0x1 1 [5 12] 4.000000] (HELLO)
r 1.150714238 _3_ RTR  --- 0 AODV 44 [0 ffffffff 5 800] ------- [5:255 -1:255 1 0] [0x1 1 [5 12] 4.000000] (HELLO)
r 1.150714320 _2_ RTR  --- 0 AODV 44 [0 ffffffff 5 800] ------- [5:255 -1:255 1 0] [0x1 1 [5 12] 4.000000] (HELLO)
r 1.150714432 _7_ RTR  --- 0 AODV 44 [0 ffffffff 5 800] ------- [5:255 -1:255 1 0] [0x1 1 [5 12] 4.000000] (HELLO)
s 1.158238026 _7_ RTR  --- 0 AODV 44 [0 0 0 0] ------- [7:255 -1:255 1 0] [0x1 1 [7 20] 4.000000] (HELLO)