M 0.00000 0 (170.23, 301.65, 0.00), (170.23, 301.65), 9.66
M 1.00000 0 (170.23, 301.65, 0.00), (159.77, 301.65), 10.46
M 1.00000 1 (138.79, 301.65, 0.00), (138.79, 301.65), 20.00
M 2.00000 0 (159.77, 301.65, 0.00), (153.08, 301.41), 6.71
M 2.00000 1 (138.79, 301.65, 0.00), (119.56, 301.65), 19.23
M 2.00000 2 (148.35, 139.12, 0.00), (148.35, 139.12), 20.00
s 2.556838879 _0_ AGT  --- 0 cbr 512 [0 0 0 0] ------- [0:0 8:0 32 0] [0] 0 0
r 2.556838879 _0_ RTR  --- 0 cbr 512 [0 0 0 0] ------- [0:0 8:0 32 0] [0] 0 0
s 2.556838879 _0_ RTR  --- 0 AODV 48 [0 0 0 0] ------- [0:255 -1:255 30 0] [0x2 1 1 [8 0] [0 4]] (REQUEST)
s 2.556953879 _0_ MAC  --- 0 AODV 106 [0 ffffffff 0 800] ------- [0:255 -1:255 30 0] [0x2 1 1 [8 0] [0 4]] (REQUEST)
r 2.557801972 _1_ MAC  --- 0 AODV 48 [0 ffffffff 0 800] ------- [0:255 -1:255 30 0] [0x2 1 1 [8 0] [0 4]] (REQUEST)
r 2.557802040 _4_ MAC  --- 0 AODV 48 [0 ffffffff 0 800] ------- [0:255 -1:255 30 0] [0x2 1 1 [8 0] [0 4]] (REQUEST)
r 2.557802117 _5_ MAC  --- 0 AODV 48 [0 ffffffff 0 800] ------- [0:255 -1:255 30 0] [0x2 1 1 [8 0] [0 4]] (REQUEST)
r 2.557802421 _2_ MAC  --- 0 AODV 48 [0 ffffffff 0 800] ------- [0:255 -1:255 30 0] [0x2 1 1 [8 0] [0 4]] (REQUEST)
r 2.557802495 _3_ MAC  --- 0 AODV 48 [0 ffffffff 0 800] ------- [0:255 -1:255 30 0] [0x2 1 1 [8 0] [0 4]] (REQUEST)
r 2.557802547 _7_ MAC  --- 0 AODV 48 [0 ffffffff 0 800] ------- [0:255 -1:255 30 0] [0x2 1 1 [8 0] [0 4]] (REQUEST)
r 2.557826972 _1_ RTR  --- 0 AODV 48 [0 ffffffff 0 800] ------- [0:255 -1:255 30 0] [0x2 1 1 [8 0] [0 4]] (REQUEST)
r 2.557827040 _4_ RTR  --- 0 AODV 48 [0 ffffffff 0 800] ------- [0:255 -1:255 30 0] [0x2 1 1 [8 0] [0 4]] (REQUEST)
r 2.557827117 _5_ RTR  --- 0 AODV 48 [0 ffffffff 0 800] ------- [0:255 -1:255 30 0] [0x2 1 1 [8 0] [0 4]] (REQUEST)
r 2.557827421 _2_ RTR  --- 0 AODV 48 [0 ffffffff 0 800] ------- [0:255 -1:255 30 0] [0x2 1 1 [8 0] [0 4]] (REQUEST)
r 2.557827495 _3_ RTR  --- 0 AODV 48 [0 ffffffff 0 800] ------- [0:255 -1:255 30 0] [0x2 1 1 [8 0] [0 4]] (REQUEST)
r 2.557827547 _7_ RTR  --- 0 AODV 48 [0 ffffffff 0 800] ------- [0:255 -1:255 30 0] [0x2 1 1 [8 0] [0 4]] (REQUEST)
s 2.558708199 _1_ RTR  --- 0 AODV 48 [0 ffffffff 0 800] ------- [1:255 -1:255 29 0] [0x2 2 1 [8 0] [0 4]] (REQUEST)
s 2.559143199 _1_ MAC  --- 0 AODV 106 [0 ffffffff 1 800] ------- [1:255 -1:255 29 0] [0x2 2 1 [8 0] [0 4]] (REQUEST)
r 2.559991266 _4_ MAC  --- 0 AODV 48 [0 ffffffff 1 800] ------- [1:255 -1:255 29 0] [0x2 2 1 [8 0] [0 4]] (REQUEST)
r 2.559991292 _0_ MAC  --- 0 AODV 48 [0 ffffffff 1 800] ------- [1:255 -1:255 29 0] [0x2 2 1 [8 0] [0 4]] (REQUEST)
r 2.559991531 _5_ MAC  --- 0 AODV 48 [0 ffffffff 1 800] ------- [1:255 -1:255 29 0] [0x2 2 1 [8 0] [0 4]] (REQUEST)
r 2.559991745 _2_ MAC  --- 0 AODV 48 [0 ffffffff 1 800] ------- [1:255 -1:255 29 0] [0x2 2 1 [8 0] [0 4]] (REQUEST)
r 2.559991872 _3_ MAC  --- 0 AODV 48 [0 ffffffff 1 800] ------- [1:255 -1:255 29 0] [0x2 2 1 [8 0] [0 4]] (REQUEST)
r 2.559991872 _7_ MAC  --- 0 AODV 48 [0 ffffffff 1 800] ------- [1:255 -1:255 29 0] [0x2 2 1 [8 0] [0 4]] (REQUEST)
r 2.560016266 _4_ RTR  --- 0 AODV 48 [0 ffffffff 1 800] ------- [1:255 -1:255 29 0] [0x2 2 1 [8 0] [0 4]] (REQUEST)
r 2.560016292 _0_ RTR  --- 0 AODV 48 [0 ffffffff 1 800] ------- [1:255 -1:255 29 0] [0x2 2 1 [8 0] [0 4]] (REQUEST)
r 2.560016531 _5_ RTR  --- 0 AODV 48 [0 ffffffff 1 800] ------- [1:255 -1:255 29 0] [0x2 2 1 [8 0] [0 4]] (REQUEST)
r 2.560016745 _2_ RTR  --- 0 AODV 48 [0 ffffffff 1 800] ------- [1:255 -1:255 29 0] [0x2 2 1 [8 0] [0 4]] (REQUEST)
r 2.560016872 _3_ RTR  --- 0 AODV 48 [0 ffffffff 1 800] ------- [1:255 -1:255 29 0] [0x2 2 1 [8 0] [0 4]] (REQUEST)
r 2.560016872 _7_ RTR  --- 0 AODV 48 [0 ffffffff 1 800] ------- [1:255 -1:255 29 0] [0x2 2 1 [8 0] [0 4]] (REQUEST)
s 2.560173565 _7_ RTR  --- 0 AODV 48 [0 ffffffff 0 800] ------- [7:255 -1:255 29 0] [0x2 2 1 [8 0] [0 4]] (REQUEST)
s 2.560488565 _7_ MAC  --- 0 AODV 106 [0 ffffffff 7 800] ------- [7:255 -1:255 29 0] [0x2 2 1 [8 0] [0 4]] (REQUEST)
s 2.560957038 _2_ RTR  --- 0 AODV 48 [0 ffffffff 0 800] ------- [2:255 -1:255 29 0] [0x2 2 1 [8 0] [0 4]] (REQUEST)
r 2.561336692 _2_ MAC  --- 0 AODV 48 [0 ffffffff 7 800] ------- [7:255 -1:255 29 0] [0x2 2 1 [8 0] [0 4]] (REQUEST)
r 2.561336741 _9_ MAC  --- 0 AODV 48 [0 ffffffff 7 800] ------- [7:255 -1:255 29 0] [0x2 2 1 [8 0] [0 4]] (REQUEST)
r 2.561336957 _3_ MAC  --- 0 AODV 48 [0 ffffffff 7 800] ------- [7:255 -1:255 29 0] [0x2 2 1 [8 0] [0 4]] (REQUEST)
r 2.561337006 _8_ MAC  --- 0 AODV 48 [0 ffffffff 7 800] ------- [7:255 -1:255 29 0] [0x2 2 1 [8 0] [0 4]] (REQUEST)
r 2.561337069 _6_ MAC  --- 0 AODV 48 [0 ffffffff 7 800] ------- [7:255 -1:255 29 0] [0x2 2 1 [8 0] [0 4]] (REQUEST)
r 2.561337233 _0_ MAC  --- 0 AODV 48 [0 ffffffff 7 800] ------- [7:255 -1:255 29 0] [0x2 2 1 [8 0] [0 4]] (REQUEST)
r 2.561337238 _1_ MAC  --- 0 AODV 48 [0 ffffffff 7 800] ------- [7:255 -1:255 29 0] [0x2 2 1 [8 0] [0 4]] (REQUEST)
r 2.561337249 _4_ MAC  --- 0 AODV 48 [0 ffffffff 7 800] ------- [7:255 -1:255 29 0] [0x2 2 1 [8 0] [0 4]] (REQUEST)
r 2.561337270 _5_ MAC  --- 0 AODV 48 [0 ffffffff 7 800] ------- [7:255 -1:255 29 0] [0x2 2 1 [8 0] [0 4]] (REQUEST)
r 2.561361692 _2_ RTR  --- 0 AODV 48 [0 ffffffff 7 800] ------- [7:255 -1:255 29 0] [0x2 2 1 [8 0] [0 4]] (REQUEST)
r 2.561361741 _9_ RTR  --- 0 AODV 48 [0 ffffffff 7 800] ------- [7:255 -1:255 29 0] [0x2 2 1 [8 0] [0 4]] (REQUEST)
r 2.561361957 _3_ RTR  --- 0 AODV 48 [0 ffffffff 7 800] ------- [7:255 -1:255 29 0] [0x2 2 1 [8 0] [0 4]] (REQUEST)
r 2.561362006 _8_ RTR  --- 0 AODV 48 [0 ffffffff 7 800] ------- [7:255 -1:255 29 0] [0x2 2 1 [8 0] [0 4]] (REQUEST)
s 2.561362006 _8_ RTR  --- 0 AODV 44 [0 0 0 0] ------- [8:255 0:255 30 7] [0x4 1 [8 4] 10.000000] (REPLY)
r 2.561362069 _6_ RTR  --- 0 AODV 48 [0 ffffffff 7 800] ------- [7:255 -1:255 29 0] [0x2 2 1 [8 0] [0 4]] (REQUEST)
r 2.561362233 _0_ RTR  --- 0 AODV 48 [0 ffffffff 7 800] ------- [7:255 -1:255 29 0] [0x2 2 1 [8 0] [0 4]] (REQUEST)
r 2.561362238 _1_ RTR  --- 0 AODV 48 [0 ffffffff 7 800] ------- [7:255 -1:255 29 0] [0x2 2 1 [8 0] [0 4]] (REQUEST)
r 2.561362249 _4_ RTR  --- 0 AODV 48 [0 ffffffff 7 800] ------- [7:255 -1:255 29 0] [0x2 2 1 [8 0] [0 4]] (REQUEST)
r 2.561362270 _5_ RTR  --- 0 AODV 48 [0 ffffffff 7 800] ------- [7:255 -1:255 29 0] [0x2 2 1 [8 0] [0 4]] (REQUEST)
s 2.561426692 _2_ MAC  --- 0 AODV 106 [0 ffffffff 2 800] ------- [2:255 -1:255 29 0] [0x2 2 1 [8 0] [0 4]] (REQUEST)
s 2.562238774 _4_ RTR  --- 0 AODV 48 [0 ffffffff 0 800] ------- [4:255 -1:255 29 0] [0x2 2 1 [8 0] [0 4]] (REQUEST)
r 2.562274820 _7_ MAC  --- 0 AODV 48 [0 ffffffff 2 800] ------- [2:255 -1:255 29 0] [0x2 2 1 [8 0] [0 4]] (REQUEST)
r 2.562274996 _9_ MAC  --- 0 AODV 48 [0 ffffffff 2 800] ------- [2:255 -1:255 29 0] [0x2 2 1 [8 0] [0 4]] (REQUEST)
r 2.562275064 _3_ MAC  --- 0 AODV 48 [0 ffffffff 2 800] ------- [2:255 -1:255 29 0] [0x2 2 1 [8 0] [0 4]] (REQUEST)
r 2.562275219 _6_ MAC  --- 0 AODV 48 [0 ffffffff 2 800] ------- [2:255 -1:255 29 0] [0x2 2 1 [8 0] [0 4]] (REQUEST)
r 2.562275230 _8_ MAC  --- 0 AODV 48 [0 ffffffff 2 800] ------- [2:255 -1:255 29 0] [0x2 2 1 [8 0] [0 4]] (REQUEST)
r 2.562275234 _0_ MAC  --- 0 AODV 48 [0 ffffffff 2 800] ------- [2:255 -1:255 29 0] [0x2 2 1 [8 0] [0 4]] (REQUEST)
r 2.562275238 _1_ MAC  --- 0 AODV 48 [0 ffffffff 2 800] ------- [2:255 -1:255 29 0] [0x2 2 1 [8 0] [0 4]] (REQUEST)
r 2.562275251 _4_ MAC  --- 0 AODV 48 [0 ffffffff 2 800] ------- [2:255 -1:255 29 0] [0x2 2 1 [8 0] [0 4]] (REQUEST)
r 2.562275285 _5_ MAC  --- 0 AODV 48 [0 ffffffff 2 800] ------- [2:255 -1:255 29 0] [0x2 2 1 [8 0] [0 4]] (REQUEST)
r 2.562299820 _7_ RTR  --- 0 AODV 48 [0 ffffffff 2 800] ------- [2:255 -1:255 29 0] [0x2 2 1 [8 0] [0 4]] (REQUEST)
r 2.562299996 _9_ RTR  --- 0 AODV 48 [0 ffffffff 2 800] ------- [2:255 -1:255 29 0] [0x2 2 1 [8 0] [0 4]] (REQUEST)
r 2.562300064 _3_ RTR  --- 0 AODV 48 [0 ffffffff 2 800] ------- [2:255 -1:255 29 0] [0x2 2 1 [8 0] [0 4]] (REQUEST)
r 2.562300219 _6_ RTR  --- 0 AODV 48 [0 ffffffff 2 800] ------- [2:255 -1:255 29 0] [0x2 2 1 [8 0] [0 4]] (REQUEST)
r 2.562300230 _8_ RTR  --- 0 AODV 48 [0 ffffffff 2 800] ------- [2:255 -1:255 29 0] [0x2 2 1 [8 0] [0 4]] (REQUEST)
r 2.562300234 _0_ RTR  --- 0 AODV 48 [0 ffffffff 2 800] ------- [2:255 -1:255 29 0] [0x2 2 1 [8 0] [0 4]] (REQUEST)
r 2.562300238 _1_ RTR  --- 0 AODV 48 [0 ffffffff 2 800] ------- [2:255 -1:255 29 0] [0x2 2 1 [8 0] [0 4]] (REQUEST)
r 2.562300251 _4_ RTR  --- 0 AODV 48 [0 ffffffff 2 800] ------- [2:255 -1:255 29 0] [0x2 2 1 [8 0] [0 4]] (REQUEST)
r 2.562300285 _5_ RTR  --- 0 AODV 48 [0 ffffffff 2 800] ------- [2:255 -1:255 29 0] [0x2 2 1 [8 0] [0 4]] (REQUEST)
s 2.562485251 _4_ MAC  --- 0 AODV 106 [0 ffffffff 4 800] ------- [4:255 -1:255 29 0] [0x2 2 1 [8 0] [0 4]] (REQUEST)
s 2.562500152 _6_ RTR  --- 0 AODV 48 [0 ffffffff 7 800] ------- [6:255 -1:255 28 0] [0x2 3 1 [8 0] [0 4]] (REQUEST)
r 2.563333318 _1_ MAC  --- 0 AODV 48 [0 ffffffff 4 800] ------- [4:255 -1:255 29 0] [0x2 2 1 [8 0] [0 4]] (REQUEST)
r 2.563333412 _0_ MAC  --- 0 AODV 48 [0 ffffffff 4 800] ------- [4:255 -1:255 29 0] [0x2 2 1 [8 0] [0 4]] (REQUEST)
r 2.563333651 _5_ MAC  --- 0 AODV 48 [0 ffffffff 4 800] ------- [4:255 -1:255 29 0] [0x2 2 1 [8 0] [0 4]] (REQUEST)
r 2.563333809 _2_ MAC  --- 0 AODV 48 [0 ffffffff 4 800] ------- [4:255 -1:255 29 0] [0x2 2 1 [8 0] [0 4]] (REQUEST)
r 2.563333935 _7_ MAC  --- 0 AODV 48 [0 ffffffff 4 800] ------- [4:255 -1:255 29 0] [0x2 2 1 [8 0] [0 4]] (REQUEST)
r 2.563333970 _3_ MAC  --- 0 AODV 48 [0 ffffffff 4 800] ------- [4:255 -1:255 29 0] [0x2 2 1 [8 0] [0 4]] (REQUEST)
r 2.563334068 _6_ MAC  --- 0 AODV 48 [0 ffffffff 4 800] ------- [4:255 -1:255 29 0] [0x2 2 1 [8 0] [0 4]] (REQUEST)
r 2.563358318 _1_ RTR  --- 0 AODV 48 [0 ffffffff 4 800] ------- [4:255 -1:255 29 0] [0x2 2 1 [8 0] [0 4]] (REQUEST)
r 2.563358412 _0_ RTR  --- 0 AODV 48 [0 ffffffff 4 800] ------- [4:255 -1:255 29 0] [0x2 2 1 [8 0] [0 4]] (REQUEST)
r 2.563358651 _5_ RTR  --- 0 AODV 48 [0 ffffffff 4 800] ------- [4:255 -1:255 29 0] [0x2 2 1 [8 0] [0 4]] (REQUEST)
r 2.563358809 _2_ RTR  --- 0 AODV 48 [0 ffffffff 4 800] ------- [4:255 -1:255 29 0] [0x2 2 1 [8 0] [0 4]] (REQUEST)
r 2.563358935 _7_ RTR  --- 0 AODV 48 [0 ffffffff 4 800] ------- [4:255 -1:255 29 0] [0x2 2 1 [8 0] [0 4]] (REQUEST)
r 2.563358970 _3_ RTR  --- 0 AODV 48 [0 ffffffff 4 800] ------- [4:255 -1:255 29 0] [0x2 2 1 [8 0] [0 4]] (REQUEST)
r 2.563359068 _6_ RTR  --- 0 AODV 48 [0 ffffffff 4 800] ------- [4:255 -1:255 29 0] [0x2 2 1 [8 0] [0 4]] (REQUEST)
s 2.563724068 _6_ MAC  --- 0 AODV 106 [0 ffffffff 6 800] ------- [6:255 -1:255 28 0] [0x2 3 1 [8 0] [0 4]] (REQUEST)
r 2.564572404 _8_ MAC  --- 0 AODV 48 [0 ffffffff 6 800] ------- [6:255 -1:255 28 0] [0x2 3 1 [8 0] [0 4]] (REQUEST)
r 2.564572573 _7_ MAC  --- 0 AODV 48 [0 ffffffff 6 800] ------- [6:255 -1:255 28 0] [0x2 3 1 [8 0] [0 4]] (REQUEST)
r 2.564572580 _9_ MAC  --- 0 AODV 48 [0 ffffffff 6 800] ------- [6:255 -1:255 28 0] [0x2 3 1 [8 0] [0 4]] (REQUEST)
r 2.564572595 _2_ MAC  --- 0 AODV 48 [0 ffffffff 6 800] ------- [6:255 -1:255 28 0] [0x2 3 1 [8 0] [0 4]] (REQUEST)
r 2.564572886 _4_ MAC  --- 0 AODV 48 [0 ffffffff 6 800] ------- [6:255 -1:255 28 0] [0x2 3 1 [8 0] [0 4]] (REQUEST)
r 2.564597404 _8_ RTR  --- 0 AODV 48 [0 ffffffff 6 800] ------- [6:255 -1:255 28 0] [0x2 3 1 [8 0] [0 4]] (REQUEST)
r 2.564597573 _7_ RTR  --- 0 AODV 48 [0 ffffffff 6 800] ------- [6:255 -1:255 28 0] [0x2 3 1 [8 0] [0 4]] (REQUEST)
r 2.564597580 _9_ RTR  --- 0 AODV 48 [0 ffffffff 6 800] ------- [6:255 -1:255 28 0] [0x2 3 1 [8 0] [0 4]] (REQUEST)
r 2.564597595 _2_ RTR  --- 0 AODV 48 [0 ffffffff 6 800] ------- [6:255 -1:255 28 0] [0x2 3 1 [8 0] [0 4]] (REQUEST)
r 2.564597886 _4_ RTR  --- 0 AODV 48 [0 ffffffff 6 800] ------- [6:255 -1:255 28 0] [0x2 3 1 [8 0] [0 4]] (REQUEST)
s 2.564702404 _8_ MAC  --- 0 ARP 86 [0 ffffffff 8 806] ------- [REQUEST 8/8 0/7]
r 2.565390734 _9_ MAC  --- 0 ARP 28 [0 ffffffff 8 806] ------- [REQUEST 8/8 0/7]
r 2.565390739 _6_ MAC  --- 0 ARP 28 [0 ffffffff 8 806] ------- [REQUEST 8/8 0/7]
r 2.565390845 _7_ MAC  --- 0 ARP 28 [0 ffffffff 8 806] ------- [REQUEST 8/8 0/7]
r 2.565390941 _2_ MAC  --- 0 ARP 28 [0 ffffffff 8 806] ------- [REQUEST 8/8 0/7]
r 2.565391218 _3_ MAC  --- 0 ARP 28 [0 ffffffff 8 806] ------- [REQUEST 8/8 0/7]
s 2.565465845 _7_ MAC  --- 0 RTS 44 [52e 8 7 0] 
r 2.565818286 _8_ MAC  --- 0 RTS 44 [52e 8 7 0] 
s 2.565818672 _5_ RTR  --- 0 AODV 48 [0 ffffffff 0 800] ------- [5:255 -1:255 29 0] [0x2 2 1 [8 0] [0 4]] (REQUEST)
s 2.565828286 _8_ MAC  --- 0 CTS 38 [3f4 7 0 0] 
s 2.565992255 _3_ RTR  --- 0 AODV 48 [0 ffffffff 0 800] ------- [3:255 -1:255 29 0] [0x2 2 1 [8 0] [0 4]] (REQUEST)
r 2.566132728 _7_ MAC  --- 0 CTS 38 [3f4 7 0 0] 
s 2.566142728 _7_ MAC  --- 0 ARP 86 [13a 8 7 806] ------- [REPLY 7/7 8/8]
r 2.566831169 _8_ MAC  --- 0 ARP 28 [13a 8 7 806] ------- [REPLY 7/7 8/8]
s 2.566841169 _8_ MAC  --- 0 ACK 38 [0 7 0 0] 
r 2.567145611 _7_ MAC  --- 0 ACK 38 [0 7 0 0] 
s 2.567395169 _8_ MAC  --- 0 RTS 44 [5ae 7 8 0] 
r 2.567747611 _7_ MAC  --- 0 RTS 44 [5ae 7 8 0] 
s 2.567757611 _7_ MAC  --- 0 CTS 38 [474 8 0 0] 
s 2.567762418 _9_ RTR  --- 0 AODV 48 [0 ffffffff 7 800] ------- [9:255 -1:255 28 0] [0x2 3 1 [8 0] [0 4]] (REQUEST)
r 2.568062052 _8_ MAC  --- 0 CTS 38 [474 8 0 0] 
s 2.568072052 _8_ MAC  --- 0 AODV 102 [13a 7 8 800] ------- [8:255 0:255 30 7] [0x4 1 [8 4] 10.000000] (REPLY)
r 2.568888494 _7_ MAC  --- 0 AODV 44 [13a 7 8 800] ------- [8:255 0:255 30 7] [0x4 1 [8 4] 10.000000] (REPLY)
s 2.568898494 _7_ MAC  --- 0 ACK 38 [0 8 0 0] 
r 2.568913494 _7_ RTR  --- 0 AODV 44 [13a 7 8 800] ------- [8:255 0:255 30 7] [0x4 1 [8 4] 10.000000] (REPLY)
f 2.568913494 _7_ RTR  --- 0 AODV 44 [13a 7 8 800] ------- [8:255 0:255 29 0] [0x4 2 [8 4] 10.000000] (REPLY)
r 2.569202935 _8_ MAC  --- 0 ACK 38 [0 8 0 0] 
s 2.569512886 _3_ MAC  --- 0 AODV 106 [0 ffffffff 3 800] ------- [3:255 -1:255 29 0] [0x2 2 1 [8 0] [0 4]] (REQUEST)
r 2.570361258 _2_ MAC  --- 0 AODV 48 [0 ffffffff 3 800] ------- [3:255 -1:255 29 0] [0x2 2 1 [8 0] [0 4]] (REQUEST)
r 2.570361279 _7_ MAC  --- 0 AODV 48 [0 ffffffff 3 800] ------- [3:255 -1:255 29 0] [0x2 2 1 [8 0] [0 4]] (REQUEST)
r 2.570361377 _9_ MAC  --- 0 AODV 48 [0 ffffffff 3 800] ------- [3:255 -1:255 29 0] [0x2 2 1 [8 0] [0 4]] (REQUEST)
r 2.570361397 _5_ MAC  --- 0 AODV 48 [0 ffffffff 3 800] ------- [3:255 -1:255 29 0] [0x2 2 1 [8 0] [0 4]] (REQUEST)
r 2.570361502 _0_ MAC  --- 0 AODV 48 [0 ffffffff 3 800] ------- [3:255 -1:255 29 0] [0x2 2 1 [8 0] [0 4]] (REQUEST)
r 2.570361560 _1_ MAC  --- 0 AODV 48 [0 ffffffff 3 800] ------- [3:255 -1:255 29 0] [0x2 2 1 [8 0] [0 4]] (REQUEST)
r 2.570361605 _4_ MAC  --- 0 AODV 48 [0 ffffffff 3 800] ------- [3:255 -1:255 29 0] [0x2 2 1 [8 0] [0 4]] (REQUEST)
r 2.570361700 _8_ MAC  --- 0 AODV 48 [0 ffffffff 3 800] ------- [3:255 -1:255 29 0] [0x2 2 1 [8 0] [0 4]] (REQUEST)
r 2.570386258 _2_ RTR  --- 0 AODV 48 [0 ffffffff 3 800] ------- [3:255 -1:255 29 0] [0x2 2 1 [8 0] [0 4]] (REQUEST)
r 2.570386279 _7_ RTR  --- 0 AODV 48 [0 ffffffff 3 800] ------- [3:255 -1:255 29 0] [0x2 2 1 [8 0] [0 4]] (REQUEST)
r 2.570386377 _9_ RTR  --- 0 AODV 48 [0 ffffffff 3 800] ------- [3:255 -1:255 29 0] [0x2 2 1 [8 0] [0 4]] (REQUEST)
r 2.570386397 _5_ RTR  --- 0 AODV 48 [0 ffffffff 3 800] ------- [3:255 -1:255 29 0] [0x2 2 1 [8 0] [0 4]] (REQUEST)
r 2.570386502 _0_ RTR  --- 0 AODV 48 [0 ffffffff 3 800] ------- [3:255 -1:255 29 0] [0x2 2 1 [8 0] [0 4]] (REQUEST)
r 2.570386560 _1_ RTR  --- 0 AODV 48 [0 ffffffff 3 800] ------- [3:255 -1:255 29 0] [0x2 2 1 [8 0] [0 4]] (REQUEST)
r 2.570386605 _4_ RTR  --- 0 AODV 48 [0 ffffffff 3 800] ------- [3:255 -1:255 29 0] [0x2 2 1 [8 0] [0 4]] (REQUEST)
r 2.570386700 _8_ RTR  --- 0 AODV 48 [0 ffffffff 3 800] ------- [3:255 -1:255 29 0] [0x2 2 1 [8 0] [0 4]] (REQUEST)
s 2.570451397 _5_ MAC  --- 0 AODV 106 [0 ffffffff 5 800] ------- [5:255 -1:255 29 0] [0x2 2 1 [8 0] [0 4]] (REQUEST)
r 2.571299636 _0_ MAC  --- 0 AODV 48 [0 ffffffff 5 800] ------- [5:255 -1:255 29 0] [0x2 2 1 [8 0] [0 4]] (REQUEST)
r 2.571299730 _1_ MAC  --- 0 AODV 48 [0 ffffffff 5 800] ------- [5:255 -1:255 29 0] [0x2 2 1 [8 0] [0 4]] (REQUEST)
r 2.571299797 _4_ MAC  --- 0 AODV 48 [0 ffffffff 5 800] ------- [5:255 -1:255 29 0] [0x2 2 1 [8 0] [0 4]] (REQUEST)
r 2.571299908 _3_ MAC  --- 0 AODV 48 [0 ffffffff 5 800] ------- [5:255 -1:255 29 0] [0x2 2 1 [8 0] [0 4]] (REQUEST)
r 2.571299990 _2_ MAC  --- 0 AODV 48 [0 ffffffff 5 800] ------- [5:255 -1:255 29 0] [0x2 2 1 [8 0] [0 4]] (REQUEST)
r 2.571300102 _7_ MAC  --- 0 AODV 48 [0 ffffffff 5 800] ------- [5:255 -1:255 29 0] [0x2 2 1 [8 0] [0 4]] (REQUEST)
r 2.571324636 _0_ RTR  --- 0 AODV 48 [0 ffffffff 5 800] ------- [5:255 -1:255 29 0] [0x2 2 1 [8 0] [0 4]] (REQUEST)
r 2.571324730 _1_ RTR  --- 0 AODV 48 [0 ffffffff 5 800] ------- [5:255 -1:255 29 0] [0x2 2 1 [8 0] [0 4]] (REQUEST)
r 2.571324797 _4_ RTR  --- 0 AODV 48 [0 ffffffff 5 800] ------- [5:255 -1:255 29 0] [0x2 2 1 [8 0] [0 4]] (REQUEST)
r 2.571324908 _3_ RTR  --- 0 AODV 48 [0 ffffffff 5 800] ------- [5:255 -1:255 29 0] [0x2 2 1 [8 0] [0 4]] (REQUEST)
r 2.571324990 _2_ RTR  --- 0 AODV 48 [0 ffffffff 5 800] ------- [5:255 -1:255 29 0] [0x2 2 1 [8 0] [0 4]] (REQUEST)
r 2.571325102 _7_ RTR  --- 0 AODV 48 [0 ffffffff 5 800] ------- [5:255 -1:255 29 0] [0x2 2 1 [8 0] [0 4]] (REQUEST)
s 2.571450102 _7_ MAC  --- 0 ARP 86 [0 ffffffff 7 806] ------- [REQUEST 7/7 0/0]
r 2.572138230 _2_ MAC  --- 0 ARP 28 [0 ffffffff 7 806] ------- [REQUEST 7/7 0/0]
r 2.572138279 _9_ MAC  --- 0 ARP 28 [0 ffffffff 7 806] ------- [REQUEST 7/7 0/0]
r 2.572138495 _3_ MAC  --- 0 ARP 28 [0 ffffffff 7 806] ------- [REQUEST 7/7 0/0]
r 2.572138544 _8_ MAC  --- 0 ARP 28 [0 ffffffff 7 806] ------- [REQUEST 7/7 0/0]
r 2.572138607 _6_ MAC  --- 0 ARP 28 [0 ffffffff 7 806] ------- [REQUEST 7/7 0/0]
r 2.572138771 _0_ MAC  --- 0 ARP 28 [0 ffffffff 7 806] ------- [REQUEST 7/7 0/0]
r 2.572138776 _1_ MAC  --- 0 ARP 28 [0 ffffffff 7 806] ------- [REQUEST 7/7 0/0]
r 2.572138787 _4_ MAC  --- 0 ARP 28 [0 ffffffff 7 806] ------- [REQUEST 7/7 0/0]
r 2.572138807 _5_ MAC  --- 0 ARP 28 [0 ffffffff 7 806] ------- [REQUEST 7/7 0/0]
s 2.572468279 _9_ MAC  --- 0 AODV 106 [0 ffffffff 9 800] ------- [9:255 -1:255 28 0] [0x2 3 1 [8 0] [0 4]] (REQUEST)
r 2.573316455 _7_ MAC  --- 0 AODV 48 [0 ffffffff 9 800] ------- [9:255 -1:255 28 0] [0x2 3 1 [8 0] [0 4]] (REQUEST)
r 2.573316583 _2_ MAC  --- 0 AODV 48 [0 ffffffff 9 800] ------- [9:255 -1:255 28 0] [0x2 3 1 [8 0] [0 4]] (REQUEST)
r 2.573316609 _8_ MAC  --- 0 AODV 48 [0 ffffffff 9 800] ------- [9:255 -1:255 28 0] [0x2 3 1 [8 0] [0 4]] (REQUEST)
r 2.573316770 _3_ MAC  --- 0 AODV 48 [0 ffffffff 9 800] ------- [9:255 -1:255 28 0] [0x2 3 1 [8 0] [0 4]] (REQUEST)
r 2.573316790 _6_ MAC  --- 0 AODV 48 [0 ffffffff 9 800] ------- [9:255 -1:255 28 0] [0x2 3 1 [8 0] [0 4]] (REQUEST)
r 2.573341455 _7_ RTR  --- 0 AODV 48 [0 ffffffff 9 800] ------- [9:255 -1:255 28 0] [0x2 3 1 [8 0] [0 4]] (REQUEST)
r 2.573341583 _2_ RTR  --- 0 AODV 48 [0 ffffffff 9 800] ------- [9:255 -1:255 28 0] [0x2 3 1 [8 0] [0 4]] (REQUEST)
r 2.573341609 _8_ RTR  --- 0 AODV 48 [0 ffffffff 9 800] ------- [9:255 -1:255 28 0] [0x2 3 1 [8 0] [0 4]] (REQUEST)
r 2.573341770 _3_ RTR  --- 0 AODV 48 [0 ffffffff 9 800] ------- [9:255 -1:255 28 0] [0x2 3 1 [8 0] [0 4]] (REQUEST)
r 2.573341790 _6_ RTR  --- 0 AODV 48 [0 ffffffff 9 800] ------- [9:255 -1:255 28 0] [0x2 3 1 [8 0] [0 4]] (REQUEST)
s 2.573831124 _0_ MAC  --- 0 RTS 44 [52e 7 0 0] 
r 2.574183793 _7_ MAC  --- 0 RTS 44 [52e 7 0 0] 
s 2.574193793 _7_ MAC  --- 0 CTS 38 [3f4 0 0 0] 
r 2.574498461 _0_ MAC  --- 0 CTS 38 [3f4 0 0 0] 
s 2.574508461 _0_ MAC  --- 0 ARP 86 [13a 7 0 806] ------- [REPLY 0/0 7/7]
r 2.575197130 _7_ MAC  --- 0 ARP 28 [13a 7 0 806] ------- [REPLY 0/0 7/7]
s 2.575207130 _7_ MAC  --- 0 ACK 38 [0 0 0 0] 
r 2.575511798 _0_ MAC  --- 0 ACK 38 [0 0 0 0] 
s 2.575641130 _7_ MAC  --- 0 RTS 44 [5ae 0 7 0] 
r 2.575993798 _0_ MAC  --- 0 RTS 44 [5ae 0 7 0] 
s 2.576003798 _0_ MAC  --- 0 CTS 38 [474 7 0 0] 
r 2.576308467 _7_ MAC  --- 0 CTS 38 [474 7 0 0] 
s 2.576318467 _7_ MAC  --- 0 AODV 102 [13a 0 7 800] ------- [8:255 0:255 29 0] [0x4 2 [8 4] 10.000000] (REPLY)
r 2.577135135 _0_ MAC  --- 0 AODV 44 [13a 0 7 800] ------- [8:255 0:255 29 0] [0x4 2 [8 4] 10.000000] (REPLY)
s 2.577145135 _0_ MAC  --- 0 ACK 38 [0 7 0 0] 
r 2.577160135 _0_ RTR  --- 0 AODV 44 [13a 0 7 800] ------- [8:255 0:255 29 0] [0x4 2 [8 4] 10.000000] (REPLY)
s 2.577160135 _0_ RTR  --- 0 cbr 532 [0 0 0 0] ------- [0:0 8:0 30 7] [0] 0 0
r 2.577449804 _7_ MAC  --- 0 ACK 38 [0 7 0 0] 
s 2.577719135 _0_ MAC  --- 0 RTS 44 [14ee 7 0 0] 
r 2.578071804 _7_ MAC  --- 0 RTS 44 [14ee 7 0 0] 
s 2.578081804 _7_ MAC  --- 0 CTS 38 [13b4 0 0 0] 
r 2.578386472 _0_ MAC  --- 0 CTS 38 [13b4 0 0 0] 
s 2.578396472 _0_ MAC  --- 0 cbr 590 [13a 7 0 800] ------- [0:0 8:0 30 7] [0] 0 0
r 2.583117141 _7_ MAC  --- 0 cbr 532 [13a 7 0 800] ------- [0:0 8:0 30 7] [0] 1 0
s 2.583127141 _7_ MAC  --- 0 ACK 38 [0 0 0 0] 
r 2.583142141 _7_ RTR  --- 0 cbr 532 [13a 7 0 800] ------- [0:0 8:0 30 7] [0] 1 0
f 2.583142141 _7_ RTR  --- 0 cbr 532 [13a 7 0 800] ------- [0:0 8:0 29 8] [0] 1 0
r 2.583431809 _0_ MAC  --- 0 ACK 38 [0 0 0 0] 
s 2.583581141 _7_ MAC  --- 0 RTS 44 [14ee 8 7 0] 
r 2.583933582 _8_ MAC  --- 0 RTS 44 [14ee 8 7 0] 
s 2.583943582 _8_ MAC  --- 0 CTS 38 [13b4 7 0 0] 
r 2.584248024 _7_ MAC  --- 0 CTS 38 [13b4 7 0 0] 
s 2.584258024 _7_ MAC  --- 0 cbr 590 [13a 8 7 800] ------- [0:0 8:0 29 8] [0] 1 0
r 2.588978465 _8_ MAC  --- 0 cbr 532 [13a 8 7 800] ------- [0:0 8:0 29 8] [0] 2 0
s 2.588988465 _8_ MAC  --- 0 ACK 38 [0 7 0 0] 
r 2.589003465 _8_ AGT  --- 0 cbr 532 [13a 8 7 800] ------- [0:0 8:0 29 8] [0] 2 0
r 2.589292906 _7_ MAC  --- 0 ACK 38 [0 7 0 0] 
M 3.00000 0 (153.08, 301.41, 0.00), (148.35, 294.89), 8.99
M 3.00000 1 (119.56, 301.65, 0.00), (100.53, 301.65), 19.03
M 3.00000 2 (148.35, 139.12, 0.00), (148.35, 119.83), 19.29
M 3.00000 3 (259.44, 148.35, 0.00), (259.44, 148.35), 15.70
s 3.057178456 _0_ AGT  --- 1 cbr 512 [0 0 0 0] ------- [0:0 8:0 32 0] [1] 0 0
r 3.057178456 _0_ RTR  --- 1 cbr 512 [0 0 0 0] ------- [0:0 8:0 32 0] [1] 0 0
s 3.057178456 _0_ RTR  --- 1 cbr 532 [0 0 0 0] ------- [0:0 8:0 30 7] [1] 0 0
s 3.057833456 _0_ MAC  --- 0 RTS 44 [14ee 7 0 0] 
r 3.058186123 _7_ MAC  --- 0 RTS 44 [14ee 7 0 0] 
s 3.058196123 _7_ MAC  --- 0 CTS 38 [13b4 0 0 0] 
r 3.058500789 _0_ MAC  --- 0 CTS 38 [13b4 0 0 0] 
s 3.058510789 _0_ MAC  --- 1 cbr 590 [13a 7 0 800] ------- [0:0 8:0 30 7] [1] 0 0
r 3.063231456 _7_ MAC  --- 1 cbr 532 [13a 7 0 800] ------- [0:0 8:0 30 7] [1] 1 0
s 3.063241456 _7_ MAC  --- 0 ACK 38 [0 0 0 0] 
r 3.063256456 _7_ RTR  --- 1 cbr 532 [13a 7 0 800] ------- [0:0 8:0 30 7] [1] 1 0
f 3.063256456 _7_ RTR  --- 1 cbr 532 [13a 7 0 800] ------- [0:0 8:0 29 8] [1] 1 0
r 3.063546122 _0_ MAC  --- 0 ACK 38 [0 0 0 0] 
s 3.063655456 _7_ MAC  --- 0 RTS 44 [14ee 8 7 0] 
r 3.064007897 _8_ MAC  --- 0 RTS 44 [14ee 8 7 0] 
s 3.064017897 _8_ MAC  --- 0 CTS 38 [13b4 7 0 0] 
r 3.064322339 _7_ MAC  --- 0 CTS 38 [13b4 7 0 0] 
s 3.064332339 _7_ MAC  --- 1 cbr 590 [13a 8 7 800] ------- [0:0 8:0 29 8] [1] 1 0
r 3.069052780 _8_ MAC  --- 1 cbr 532 [13a 8 7 800] ------- [0:0 8:0 29 8] [1] 2 0
s 3.069062780 _8_ MAC  --- 0 ACK 38 [0 7 0 0] 
r 3.069077780 _8_ AGT  --- 1 cbr 532 [13a 8 7 800] ------- [0:0 8:0 29 8] [1] 2 0
r 3.069367222 _7_ MAC  --- 0 ACK 38 [0 7 0 0] 
M 4.00000 0 (148.35, 294.89, 0.00), (148.35, 283.91), 10.98
M 4.00000 1 (100.53, 301.65, 0.00), (80.53, 301.65), 19.99
M 4.00000 2 (148.35, 119.83, 0.00), (148.35, 100.71), 19.13
M 4.00000 3 (259.44, 148.35, 0.00), (274.30, 148.35), 14.86
M 4.00000 4 (107.69, 301.65, 0.00), (107.69, 301.65), 19.92
s 4.448526277 _0_ AGT  --- 2 cbr 512 [0 0 0 0] ------- [0:0 8:0 32 0] [2] 0 0
r 4.448526277 _0_ RTR  --- 2 cbr 512 [0 0 0 0] ------- [0:0 8:0 32 0] [2] 0 0
s 4.448526277 _0_ RTR  --- 2 cbr 532 [0 0 0 0] ------- [0:0 8:0 30 7] [2] 0 0
s 4.448881277 _0_ MAC  --- 0 RTS 44 [14ee 7 0 0] 
r 4.449233907 _7_ MAC  --- 0 RTS 44 [14ee 7 0 0] 
s 4.449243907 _7_ MAC  --- 0 CTS 38 [13b4 0 0 0] 
r 4.449548537 _0_ MAC  --- 0 CTS 38 [13b4 0 0 0] 
s 4.449558537 _0_ MAC  --- 2 cbr 590 [13a 7 0 800] ------- [0:0 8:0 30 7] [2] 0 0
r 4.454279167 _7_ MAC  --- 2 cbr 532 [13a 7 0 800] ------- [0:0 8:0 30 7] [2] 1 0
s 4.454289167 _7_ MAC  --- 0 ACK 38 [0 0 0 0] 
r 4.454304167 _7_ RTR  --- 2 cbr 532 [13a 7 0 800] ------- [0:0 8:0 30 7] [2] 1 0
f 4.454304167 _7_ RTR  --- 2 cbr 532 [13a 7 0 800] ------- [0:0 8:0 29 8] [2] 1 0
r 4.454593797 _0_ MAC  --- 0 ACK 38 [0 0 0 0] 
s 4.454823167 _7_ MAC  --- 0 RTS 44 [14ee 8 7 0] 
r 4.455175609 _8_ MAC  --- 0 RTS 44 [14ee 8 7 0] 
s 4.455185609 _8_ MAC  --- 0 CTS 38 [13b4 7 0 0] 
r 4.455490050 _7_ MAC  --- 0 CTS 38 [13b4 7 0 0] 
s 4.455500050 _7_ MAC  --- 2 cbr 590 [13a 8 7 800] ------- [0:0 8:0 29 8] [2] 1 0
r 4.460220492 _8_ MAC  --- 2 cbr 532 [13a 8 7 800] ------- [0:0 8:0 29 8] [2] 2 0
s 4.460230492 _8_ MAC  --- 0 ACK 38 [0 7 0 0] 
r 4.460245492 _8_ AGT  --- 2 cbr 532 [13a 8 7 800] ------- [0:0 8:0 29 8] [2] 2 0
r 4.460534933 _7_ MAC  --- 0 ACK 38 [0 7 0 0] 
M 5.00000 0 (148.35, 283.91, 0.00), (148.35, 271.22), 12.69
M 5.00000 1 (80.54, 301.65, 0.00), (60.61, 301.65), 19.92
M 5.00000 2 (148.35, 100.71, 0.00), (148.35, 81.12), 19.58
M 5.00000 3 (274.30, 148.35, 0.00), (285.39, 148.35), 11.09
M 5.00000 4 (107.69, 301.65, 0.00), (88.90, 301.65), 18.79
M 5.00000 5 (227.59, 298.35, 0.00), (227.59, 298.35), 20.00
s 5.284189036 _0_ AGT  --- 3 cbr 512 [0 0 0 0] ------- [0:0 8:0 32 0] [3] 0 0
r 5.284189036 _0_ RTR  --- 3 cbr 512 [0 0 0 0] ------- [0:0 8:0 32 0] [3] 0 0
s 5.284189036 _0_ RTR  --- 3 cbr 532 [0 0 0 0] ------- [0:0 8:0 30 7] [3] 0 0
s 5.284484036 _0_ MAC  --- 0 RTS 44 [14ee 7 0 0] 
r 5.284836634 _7_ MAC  --- 0 RTS 44 [14ee 7 0 0] 
s 5.284846634 _7_ MAC  --- 0 CTS 38 [13b4 0 0 0] 
r 5.285151231 _0_ MAC  --- 0 CTS 38 [13b4 0 0 0] 
s 5.285161231 _0_ MAC  --- 3 cbr 590 [13a 7 0 800] ------- [0:0 8:0 30 7] [3] 0 0
r 5.289881829 _7_ MAC  --- 3 cbr 532 [13a 7 0 800] ------- [0:0 8:0 30 7] [3] 1 0
s 5.289891829 _7_ MAC  --- 0 ACK 38 [0 0 0 0] 
r 5.289906829 _7_ RTR  --- 3 cbr 532 [13a 7 0 800] ------- [0:0 8:0 30 7] [3] 1 0
f 5.289906829 _7_ RTR  --- 3 cbr 532 [13a 7 0 800] ------- [0:0 8:0 29 8] [3] 1 0
r 5.290196427 _0_ MAC  --- 0 ACK 38 [0 0 0 0] 
s 5.290565829 _7_ MAC  --- 0 RTS 44 [14ee 8 7 0] 
r 5.290918270 _8_ MAC  --- 0 RTS 44 [14ee 8 7 0] 
s 5.290928270 _8_ MAC  --- 0 CTS 38 [13b4 7 0 0] 
r 5.291232712 _7_ MAC  --- 0 CTS 38 [13b4 7 0 0] 
s 5.291242712 _7_ MAC  --- 3 cbr 590 [13a 8 7 800] ------- [0:0 8:0 29 8] [3] 1 0
r 5.295963153 _8_ MAC  --- 3 cbr 532 [13a 8 7 800] ------- [0:0 8:0 29 8] [3] 2 0
s 5.295973153 _8_ MAC  --- 0 ACK 38 [0 7 0 0] 
r 5.295988153 _8_ AGT  --- 3 cbr 532 [13a 8 7 800] ------- [0:0 8:0 29 8] [3] 2 0
r 5.296277595 _7_ MAC  --- 0 ACK 38 [0 7 0 0] 
M 6.00000 0 (148.35, 271.22, 0.00), (148.35, 256.99), 14.22
M 6.00000 1 (60.62, 301.65, 0.00), (41.01, 301.65), 19.60
M 6.00000 2 (148.35, 81.13, 0.00), (148.35, 62.35), 18.78
M 6.00000 3 (285.39, 148.35, 0.00), (291.98, 148.35), 6.59
M 6.00000 4 (88.90, 301.65, 0.00), (69.73, 301.65), 19.18
M 6.00000 5 (227.59, 298.35, 0.00), (247.08, 298.35), 19.48
M 6.00000 6 (1.65, 80.54, 0.00), (1.65, 80.54), 20.00
s 6.329011003 _0_ AGT  --- 4 cbr 512 [0 0 0 0] ------- [0:0 8:0 32 0] [4] 0 0
r 6.329011003 _0_ RTR  --- 4 cbr 512 [0 0 0 0] ------- [0:0 8:0 32 0] [4] 0 0
s 6.329011003 _0_ RTR  --- 4 cbr 532 [0 0 0 0] ------- [0:0 8:0 30 7] [4] 0 0
s 6.329386003 _0_ MAC  --- 0 RTS 44 [14ee 7 0 0] 
r 6.329738555 _7_ MAC  --- 0 RTS 44 [14ee 7 0 0] 
s 6.329748555 _7_ MAC  --- 0 CTS 38 [13b4 0 0 0] 
r 6.330053107 _0_ MAC  --- 0 CTS 38 [13b4 0 0 0] 
s 6.330063107 _0_ MAC  --- 4 cbr 590 [13a 7 0 800] ------- [0:0 8:0 30 7] [4] 0 0
r 6.334783658 _7_ MAC  --- 4 cbr 532 [13a 7 0 800] ------- [0:0 8:0 30 7] [4] 1 0
s 6.334793658 _7_ MAC  --- 0 ACK 38 [0 0 0 0] 
r 6.334808658 _7_ RTR  --- 4 cbr 532 [13a 7 0 800] ------- [0:0 8:0 30 7] [4] 1 0
f 6.334808658 _7_ RTR  --- 4 cbr 532 [13a 7 0 800] ------- [0:0 8:0 29 8] [4] 1 0
r 6.335098210 _0_ MAC  --- 0 ACK 38 [0 0 0 0] 
s 6.335147658 _7_ MAC  --- 0 RTS 44 [14ee 8 7 0] 
r 6.335500100 _8_ MAC  --- 0 RTS 44 [14ee 8 7 0] 
s 6.335510100 _8_ MAC  --- 0 CTS 38 [13b4 7 0 0] 
r 6.335814541 _7_ MAC  --- 0 CTS 38 [13b4 7 0 0] 
s 6.335824541 _7_ MAC  --- 4 cbr 590 [13a 8 7 800] ------- [0:0 8:0 29 8] [4] 1 0
r 6.340544983 _8_ MAC  --- 4 cbr 532 [13a 8 7 800] ------- [0:0 8:0 29 8] [4] 2 0
s 6.340554983 _8_ MAC  --- 0 ACK 38 [0 7 0 0] 
r 6.340569983 _8_ AGT  --- 4 cbr 532 [13a 8 7 800] ------- [0:0 8:0 29 8] [4] 2 0
r 6.340859424 _7_ MAC  --- 0 ACK 38 [0 7 0 0] 
s 6.856568475 _0_ AGT  --- 5 cbr 512 [0 0 0 0] ------- [0:0 8:0 32 0] [5] 0 0
r 6.856568475 _0_ RTR  --- 5 cbr 512 [0 0 0 0] ------- [0:0 8:0 32 0] [5] 0 0
s 6.856568475 _0_ RTR  --- 5 cbr 532 [0 0 0 0] ------- [0:0 8:0 30 7] [5] 0 0
s 6.856663475 _0_ MAC  --- 0 RTS 44 [14ee 7 0 0] 
r 6.857016002 _7_ MAC  --- 0 RTS 44 [14ee 7 0 0] 
s 6.857026002 _7_ MAC  --- 0 CTS 38 [13b4 0 0 0] 
r 6.857330529 _0_ MAC  --- 0 CTS 38 [13b4 0 0 0] 
s 6.857340529 _0_ MAC  --- 5 cbr 590 [13a 7 0 800] ------- [0:0 8:0 30 7] [5] 0 0
r 6.862061056 _7_ MAC  --- 5 cbr 532 [13a 7 0 800] ------- [0:0 8:0 30 7] [5] 1 0
s 6.862071056 _7_ MAC  --- 0 ACK 38 [0 0 0 0] 
r 6.862086056 _7_ RTR  --- 5 cbr 532 [13a 7 0 800] ------- [0:0 8:0 30 7] [5] 1 0
f 6.862086056 _7_ RTR  --- 5 cbr 532 [13a 7 0 800] ------- [0:0 8:0 29 8] [5] 1 0
r 6.862375582 _0_ MAC  --- 0 ACK 38 [0 0 0 0] 
s 6.862905056 _7_ MAC  --- 0 RTS 44 [14ee 8 7 0] 
r 6.863257497 _8_ MAC  --- 0 RTS 44 [14ee 8 7 0] 
s 6.863267497 _8_ MAC  --- 0 CTS 38 [13b4 7 0 0] 
r 6.863571939 _7_ MAC  --- 0 CTS 38 [13b4 7 0 0] 
s 6.863581939 _7_ MAC  --- 5 cbr 590 [13a 8 7 800] ------- [0:0 8:0 29 8] [5] 1 0
r 6.868302380 _8_ MAC  --- 5 cbr 532 [13a 8 7 800] ------- [0:0 8:0 29 8] [5] 2 0
s 6.868312380 _8_ MAC  --- 0 ACK 38 [0 7 0 0] 
r 6.868327380 _8_ AGT  --- 5 cbr 532 [13a 8 7 800] ------- [0:0 8:0 29 8] [5] 2 0
r 6.868616822 _7_ MAC  --- 0 ACK 38 [0 7 0 0] 
M 7.00000 0 (148.35, 257.00, 0.00), (148.35, 241.17), 15.83