M 0.00000 0 (751.65, 129.94, 0.00), (751.65, 129.94), 9.60
M 1.00000 0 (751.65, 129.94, 0.00), (751.65, 140.34), 10.40
M 1.00000 1 (288.86, 601.65, 0.00), (288.86, 601.65), 20.00
M 2.00000 0 (751.65, 140.34, 0.00), (751.40, 146.98), 6.66
M 2.00000 1 (288.86, 601.65, 0.00), (269.63, 601.65), 19.23
M 2.00000 2 (751.65, 760.88, 0.00), (751.65, 760.88), 20.00
s 2.556838879 _28_ AGT  --- 0 cbr 512 [0 0 0 0] ------- [28:0 9:0 32 0] [0] 0 0
r 2.556838879 _28_ RTR  --- 0 cbr 512 [0 0 0 0] ------- [28:0 9:0 32 0] [0] 0 0
s 2.556838879 _28_ RTR  --- 0 AODV 48 [0 0 0 0] ------- [28:255 -1:255 30 0] [0x2 1 1 [9 0] [28 4]] (REQUEST)
s 2.556953879 _28_ MAC  --- 0 AODV 106 [0 ffffffff 1c 800] ------- [28:255 -1:255 30 0] [0x2 1 1 [9 0] [28 4]] (REQUEST)
r 2.557802694 _20_ MAC  --- 0 AODV 48 [0 ffffffff 1c 800] ------- [28:255 -1:255 30 0] [0x2 1 1 [9 0] [28 4]] (REQUEST)
r 2.557827694 _20_ RTR  --- 0 AODV 48 [0 ffffffff 1c 800] ------- [28:255 -1:255 30 0] [0x2 1 1 [9 0] [28 4]] (REQUEST)
s 2.558708920 _20_ RTR  --- 0 AODV 48 [0 ffffffff 1c 800] ------- [20:255 -1:255 29 0] [0x2 2 1 [9 0] [28 4]] (REQUEST)
s 2.559103920 _20_ MAC  --- 0 AODV 106 [0 ffffffff 14 800] ------- [20:255 -1:255 29 0] [0x2 2 1 [9 0] [28 4]] (REQUEST)
r 2.559952735 _28_ MAC  --- 0 AODV 48 [0 ffffffff 14 800] ------- [20:255 -1:255 29 0] [0x2 2 1 [9 0] [28 4]] (REQUEST)
r 2.559977735 _28_ RTR  --- 0 AODV 48 [0 ffffffff 14 800] ------- [20:255 -1:255 29 0] [0x2 2 1 [9 0] [28 4]] (REQUEST)
M 3.00000 0 (751.40, 146.98, 0.00), (744.89, 151.65), 8.93
M 3.00000 1 (269.63, 601.65, 0.00), (250.59, 601.65), 19.03
M 3.00000 2 (751.65, 760.88, 0.00), (751.65, 780.17), 19.29
M 3.00000 3 (898.35, 640.56, 0.00), (898.35, 640.56), 20.00
s 3.057178456 _28_ AGT  --- 1 cbr 512 [0 0 0 0] ------- [28:0 9:0 32 0] [1] 0 0
r 3.057178456 _28_ RTR  --- 1 cbr 512 [0 0 0 0] ------- [28:0 9:0 32 0] [1] 0 0
s 3.870140228 _28_ AGT  --- 2 cbr 512 [0 0 0 0] ------- [28:0 9:0 32 0] [2] 0 0
r 3.870140228 _28_ RTR  --- 2 cbr 512 [0 0 0 0] ------- [28:0 9:0 32 0] [2] 0 0
M 4.00000 0 (744.89, 151.65, 0.00), (733.96, 151.65), 10.93
M 4.00000 1 (250.60, 601.65, 0.00), (230.60, 601.65), 19.99
M 4.00000 2 (751.65, 780.17, 0.00), (751.65, 799.29), 19.13
M 4.00000 3 (898.35, 640.56, 0.00), (898.35, 621.15), 19.41
M 4.00000 4 (815.69, 601.65, 0.00), (815.69, 601.65), 20.00
s 4.500000000 _28_ RTR  --- 0 AODV 48 [0 0 0 0] ------- [28:255 -1:255 30 0] [0x2 1 2 [9 0] [28 6]] (REQUEST)
s 4.500315000 _28_ MAC  --- 0 AODV 106 [0 ffffffff 1c 800] ------- [28:255 -1:255 30 0] [0x2 1 2 [9 0] [28 6]] (REQUEST)
r 4.501163815 _20_ MAC  --- 0 AODV 48 [0 ffffffff 1c 800] ------- [28:255 -1:255 30 0] [0x2 1 2 [9 0] [28 6]] (REQUEST)
r 4.501163832 _1_ MAC  --- 0 AODV 48 [0 ffffffff 1c 800] ------- [28:255 -1:255 30 0] [0x2 1 2 [9 0] [28 6]] (REQUEST)
r 4.501188815 _20_ RTR  --- 0 AODV 48 [0 ffffffff 1c 800] ------- [28:255 -1:255 30 0] [0x2 1 2 [9 0] [28 6]] (REQUEST)
r 4.501188832 _1_ RTR  --- 0 AODV 48 [0 ffffffff 1c 800] ------- [28:255 -1:255 30 0] [0x2 1 2 [9 0] [28 6]] (REQUEST)
s 4.504279605 _20_ RTR  --- 0 AODV 48 [0 ffffffff 1c 800] ------- [20:255 -1:255 29 0] [0x2 2 2 [9 0] [28 6]] (REQUEST)
s 4.504394605 _20_ MAC  --- 0 AODV 106 [0 ffffffff 14 800] ------- [20:255 -1:255 29 0] [0x2 2 2 [9 0] [28 6]] (REQUEST)
r 4.505243420 _28_ MAC  --- 0 AODV 48 [0 ffffffff 14 800] ------- [20:255 -1:255 29 0] [0x2 2 2 [9 0] [28 6]] (REQUEST)
r 4.505268420 _28_ RTR  --- 0 AODV 48 [0 ffffffff 14 800] ------- [20:255 -1:255 29 0] [0x2 2 2 [9 0] [28 6]] (REQUEST)
s 4.509552067 _1_ RTR  --- 0 AODV 48 [0 ffffffff 1c 800] ------- [1:255 -1:255 29 0] [0x2 2 2 [9 0] [28 6]] (REQUEST)
s 4.509787067 _1_ MAC  --- 0 AODV 106 [0 ffffffff 1 800] ------- [1:255 -1:255 29 0] [0x2 2 2 [9 0] [28 6]] (REQUEST)
r 4.510635280 _27_ MAC  --- 0 AODV 48 [0 ffffffff 1 800] ------- [1:255 -1:255 29 0] [0x2 2 2 [9 0] [28 6]] (REQUEST)
r 4.510635789 _14_ MAC  --- 0 AODV 48 [0 ffffffff 1 800] ------- [1:255 -1:255 29 0] [0x2 2 2 [9 0] [28 6]] (REQUEST)
r 4.510635819 _11_ MAC  --- 0 AODV 48 [0 ffffffff 1 800] ------- [1:255 -1:255 29 0] [0x2 2 2 [9 0] [28 6]] (REQUEST)
r 4.510635898 _28_ MAC  --- 0 AODV 48 [0 ffffffff 1 800] ------- [1:255 -1:255 29 0] [0x2 2 2 [9 0] [28 6]] (REQUEST)
r 4.510660280 _27_ RTR  --- 0 AODV 48 [0 ffffffff 1 800] ------- [1:255 -1:255 29 0] [0x2 2 2 [9 0] [28 6]] (REQUEST)
s 4.510660280 _27_ RTR  --- 0 AODV 44 [0 0 0 0] ------- [27:255 28:255 30 1] [0x4 1 [9 4] 10.000000] (REPLY)
r 4.510660789 _14_ RTR  --- 0 AODV 48 [0 ffffffff 1 800] ------- [1:255 -1:255 29 0] [0x2 2 2 [9 0] [28 6]] (REQUEST)
r 4.510660819 _11_ RTR  --- 0 AODV 48 [0 ffffffff 1 800] ------- [1:255 -1:255 29 0] [0x2 2 2 [9 0] [28 6]] (REQUEST)
r 4.510660898 _28_ RTR  --- 0 AODV 48 [0 ffffffff 1 800] ------- [1:255 -1:255 29 0] [0x2 2 2 [9 0] [28 6]] (REQUEST)
s 4.511195280 _27_ MAC  --- 0 ARP 86 [0 ffffffff 1b 806] ------- [REQUEST 27/27 0/1]
r 4.511883493 _1_ MAC  --- 0 ARP 28 [0 ffffffff 1b 806] ------- [REQUEST 27/27 0/1]
r 4.511883833 _11_ MAC  --- 0 ARP 28 [0 ffffffff 1b 806] ------- [REQUEST 27/27 0/1]
r 4.511884037 _14_ MAC  --- 0 ARP 28 [0 ffffffff 1b 806] ------- [REQUEST 27/27 0/1]
r 4.511884067 _16_ MAC  --- 0 ARP 28 [0 ffffffff 1b 806] ------- [REQUEST 27/27 0/1]
s 4.512258493 _1_ MAC  --- 0 RTS 44 [52e 1b 1 0] 
r 4.512610707 _27_ MAC  --- 0 RTS 44 [52e 1b 1 0] 
s 4.512620707 _27_ MAC  --- 0 CTS 38 [3f4 1 0 0] 
r 4.512924920 _1_ MAC  --- 0 CTS 38 [3f4 1 0 0] 
s 4.512934920 _1_ MAC  --- 0 ARP 86 [13a 1b 1 806] ------- [REPLY 1/1 27/27]
r 4.513623133 _27_ MAC  --- 0 ARP 28 [13a 1b 1 806] ------- [REPLY 1/1 27/27]
s 4.513633133 _27_ MAC  --- 0 ACK 38 [0 1 0 0] 
r 4.513937347 _1_ MAC  --- 0 ACK 38 [0 1 0 0] 
s 4.514007133 _27_ MAC  --- 0 RTS 44 [5ae 1 1b 0] 
r 4.514359347 _1_ MAC  --- 0 RTS 44 [5ae 1 1b 0] 
s 4.514369347 _1_ MAC  --- 0 CTS 38 [474 1b 0 0] 
r 4.514673560 _27_ MAC  --- 0 CTS 38 [474 1b 0 0] 
s 4.514683560 _27_ MAC  --- 0 AODV 102 [13a 1 1b 800] ------- [27:255 28:255 30 1] [0x4 1 [9 4] 10.000000] (REPLY)
s 4.514897386 _11_ RTR  --- 0 AODV 48 [0 ffffffff 1 800] ------- [11:255 -1:255 28 0] [0x2 3 2 [9 0] [28 6]] (REQUEST)
r 4.515499774 _1_ MAC  --- 0 AODV 44 [13a 1 1b 800] ------- [27:255 28:255 30 1] [0x4 1 [9 4] 10.000000] (REPLY)
s 4.515509774 _1_ MAC  --- 0 ACK 38 [0 1b 0 0] 
r 4.515524774 _1_ RTR  --- 0 AODV 44 [13a 1 1b 800] ------- [27:255 28:255 30 1] [0x4 1 [9 4] 10.000000] (REPLY)
f 4.515524774 _1_ RTR  --- 0 AODV 44 [13a 1 1b 800] ------- [27:255 28:255 29 28] [0x4 2 [9 4] 10.000000] (REPLY)
r 4.515813987 _27_ MAC  --- 0 ACK 38 [0 1b 0 0] 
s 4.516043774 _1_ MAC  --- 0 ARP 86 [0 ffffffff 1 806] ------- [REQUEST 1/1 0/28]
r 4.516731987 _27_ MAC  --- 0 ARP 28 [0 ffffffff 1 806] ------- [REQUEST 1/1 0/28]
r 4.516732496 _14_ MAC  --- 0 ARP 28 [0 ffffffff 1 806] ------- [REQUEST 1/1 0/28]
r 4.516732526 _11_ MAC  --- 0 ARP 28 [0 ffffffff 1 806] ------- [REQUEST 1/1 0/28]
r 4.516732604 _28_ MAC  --- 0 ARP 28 [0 ffffffff 1 806] ------- [REQUEST 1/1 0/28]
s 4.516822526 _11_ MAC  --- 0 AODV 106 [0 ffffffff b 800] ------- [11:255 -1:255 28 0] [0x2 3 2 [9 0] [28 6]] (REQUEST)
r 4.517671079 _27_ MAC  --- 0 AODV 48 [0 ffffffff b 800] ------- [11:255 -1:255 28 0] [0x2 3 2 [9 0] [28 6]] (REQUEST)
r 4.517671208 _16_ MAC  --- 0 AODV 48 [0 ffffffff b 800] ------- [11:255 -1:255 28 0] [0x2 3 2 [9 0] [28 6]] (REQUEST)
r 4.517671215 _26_ MAC  --- 0 AODV 48 [0 ffffffff b 800] ------- [11:255 -1:255 28 0] [0x2 3 2 [9 0] [28 6]] (REQUEST)
r 4.517671279 _1_ MAC  --- 0 AODV 48 [0 ffffffff b 800] ------- [11:255 -1:255 28 0] [0x2 3 2 [9 0] [28 6]] (REQUEST)
r 4.517671350 _17_ MAC  --- 0 AODV 48 [0 ffffffff b 800] ------- [11:255 -1:255 28 0] [0x2 3 2 [9 0] [28 6]] (REQUEST)
r 4.517696079 _27_ RTR  --- 0 AODV 48 [0 ffffffff b 800] ------- [11:255 -1:255 28 0] [0x2 3 2 [9 0] [28 6]] (REQUEST)
r 4.517696208 _16_ RTR  --- 0 AODV 48 [0 ffffffff b 800] ------- [11:255 -1:255 28 0] [0x2 3 2 [9 0] [28 6]] (REQUEST)
r 4.517696215 _26_ RTR  --- 0 AODV 48 [0 ffffffff b 800] ------- [11:255 -1:255 28 0] [0x2 3 2 [9 0] [28 6]] (REQUEST)
r 4.517696279 _1_ RTR  --- 0 AODV 48 [0 ffffffff b 800] ------- [11:255 -1:255 28 0] [0x2 3 2 [9 0] [28 6]] (REQUEST)
r 4.517696350 _17_ RTR  --- 0 AODV 48 [0 ffffffff b 800] ------- [11:255 -1:255 28 0] [0x2 3 2 [9 0] [28 6]] (REQUEST)
s 4.518506094 _28_ MAC  --- 0 RTS 44 [52e 1 1c 0] 
r 4.518858924 _1_ MAC  --- 0 RTS 44 [52e 1 1c 0] 
s 4.518868924 _1_ MAC  --- 0 CTS 38 [3f4 1c 0 0] 
r 4.519173755 _28_ MAC  --- 0 CTS 38 [3f4 1c 0 0] 
s 4.519183755 _28_ MAC  --- 0 ARP 86 [13a 1 1c 806] ------- [REPLY 28/28 1/1]
s 4.519258066 _14_ RTR  --- 0 AODV 48 [0 ffffffff 1 800] ------- [14:255 -1:255 28 0] [0x2 3 2 [9 0] [28 6]] (REQUEST)
s 4.519867945 _17_ RTR  --- 0 AODV 48 [0 ffffffff b 800] ------- [17:255 -1:255 27 0] [0x2 4 2 [9 0] [28 6]] (REQUEST)
r 4.519872585 _1_ MAC  --- 0 ARP 28 [13a 1 1c 806] ------- [REPLY 28/28 1/1]
s 4.519882585 _1_ MAC  --- 0 ACK 38 [0 1c 0 0] 
r 4.520187415 _28_ MAC  --- 0 ACK 38 [0 1c 0 0] 
s 4.520536585 _1_ MAC  --- 0 RTS 44 [5ae 1c 1 0] 
r 4.520889415 _28_ MAC  --- 0 RTS 44 [5ae 1c 1 0] 
s 4.520899415 _28_ MAC  --- 0 CTS 38 [474 1 0 0] 
r 4.521204245 _1_ MAC  --- 0 CTS 38 [474 1 0 0] 
s 4.521214245 _1_ MAC  --- 0 AODV 102 [13a 1c 1 800] ------- [27:255 28:255 29 28] [0x4 2 [9 4] 10.000000] (REPLY)
r 4.522031076 _28_ MAC  --- 0 AODV 44 [13a 1c 1 800] ------- [27:255 28:255 29 28] [0x4 2 [9 4] 10.000000] (REPLY)
s 4.522041076 _28_ MAC  --- 0 ACK 38 [0 1 0 0] 
r 4.522056076 _28_ RTR  --- 0 AODV 44 [13a 1c 1 800] ------- [27:255 28:255 29 28] [0x4 2 [9 4] 10.000000] (REPLY)
s 4.522056076 _28_ RTR  --- 0 cbr 532 [0 0 0 0] ------- [28:0 9:0 30 1] [0] 0 0
r 4.522345906 _1_ MAC  --- 0 ACK 38 [0 1 0 0] 
s 4.522475076 _28_ MAC  --- 0 RTS 44 [14ee 1 1c 0] 
s 4.522485337 _17_ MAC  --- 0 AODV 106 [0 ffffffff 11 800] ------- [17:255 -1:255 27 0] [0x2 4 2 [9 0] [28 6]] (REQUEST)
D 4.522486429 _1_ MAC  COL 0 RTS 44 [14ee 1 1c 0] 
r 4.523333716 _15_ MAC  --- 0 AODV 48 [0 ffffffff 11 800] ------- [17:255 -1:255 27 0] [0x2 4 2 [9 0] [28 6]] (REQUEST)
D 4.523333867 _14_ MAC  COL 0 AODV 106 [0 ffffffff 11 800] ------- [17:255 -1:255 27 0] [0x2 4 2 [9 0] [28 6]] (REQUEST)
r 4.523333967 _26_ MAC  --- 0 AODV 48 [0 ffffffff 11 800] ------- [17:255 -1:255 27 0] [0x2 4 2 [9 0] [28 6]] (REQUEST)
r 4.523334027 _24_ MAC  --- 0 AODV 48 [0 ffffffff 11 800] ------- [17:255 -1:255 27 0] [0x2 4 2 [9 0] [28 6]] (REQUEST)
D 4.523334162 _11_ MAC  COL 0 AODV 106 [0 ffffffff 11 800] ------- [17:255 -1:255 27 0] [0x2 4 2 [9 0] [28 6]] (REQUEST)
r 4.523358716 _15_ RTR  --- 0 AODV 48 [0 ffffffff 11 800] ------- [17:255 -1:255 27 0] [0x2 4 2 [9 0] [28 6]] (REQUEST)
r 4.523358967 _26_ RTR  --- 0 AODV 48 [0 ffffffff 11 800] ------- [17:255 -1:255 27 0] [0x2 4 2 [9 0] [28 6]] (REQUEST)
r 4.523359027 _24_ RTR  --- 0 AODV 48 [0 ffffffff 11 800] ------- [17:255 -1:255 27 0] [0x2 4 2 [9 0] [28 6]] (REQUEST)
s 4.523867867 _14_ MAC  --- 0 AODV 106 [0 ffffffff e 800] ------- [14:255 -1:255 28 0] [0x2 3 2 [9 0] [28 6]] (REQUEST)
r 4.524716307 _12_ MAC  --- 0 AODV 48 [0 ffffffff e 800] ------- [14:255 -1:255 28 0] [0x2 3 2 [9 0] [28 6]] (REQUEST)
r 4.524716396 _17_ MAC  --- 0 AODV 48 [0 ffffffff e 800] ------- [14:255 -1:255 28 0] [0x2 3 2 [9 0] [28 6]] (REQUEST)
r 4.524716464 _19_ MAC  --- 0 AODV 48 [0 ffffffff e 800] ------- [14:255 -1:255 28 0] [0x2 3 2 [9 0] [28 6]] (REQUEST)
r 4.524716473 _7_ MAC  --- 0 AODV 48 [0 ffffffff e 800] ------- [14:255 -1:255 28 0] [0x2 3 2 [9 0] [28 6]] (REQUEST)
r 4.524716589 _1_ MAC  --- 0 AODV 48 [0 ffffffff e 800] ------- [14:255 -1:255 28 0] [0x2 3 2 [9 0] [28 6]] (REQUEST)
r 4.524716593 _15_ MAC  --- 0 AODV 48 [0 ffffffff e 800] ------- [14:255 -1:255 28 0] [0x2 3 2 [9 0] [28 6]] (REQUEST)
r 4.524716624 _27_ MAC  --- 0 AODV 48 [0 ffffffff e 800] ------- [14:255 -1:255 28 0] [0x2 3 2 [9 0] [28 6]] (REQUEST)
r 4.524716647 _6_ MAC  --- 0 AODV 48 [0 ffffffff e 800] ------- [14:255 -1:255 28 0] [0x2 3 2 [9 0] [28 6]] (REQUEST)
r 4.524741307 _12_ RTR  --- 0 AODV 48 [0 ffffffff e 800] ------- [14:255 -1:255 28 0] [0x2 3 2 [9 0] [28 6]] (REQUEST)
r 4.524741396 _17_ RTR  --- 0 AODV 48 [0 ffffffff e 800] ------- [14:255 -1:255 28 0] [0x2 3 2 [9 0] [28 6]] (REQUEST)
r 4.524741464 _19_ RTR  --- 0 AODV 48 [0 ffffffff e 800] ------- [14:255 -1:255 28 0] [0x2 3 2 [9 0] [28 6]] (REQUEST)
r 4.524741473 _7_ RTR  --- 0 AODV 48 [0 ffffffff e 800] ------- [14:255 -1:255 28 0] [0x2 3 2 [9 0] [28 6]] (REQUEST)
r 4.524741589 _1_ RTR  --- 0 AODV 48 [0 ffffffff e 800] ------- [14:255 -1:255 28 0] [0x2 3 2 [9 0] [28 6]] (REQUEST)
r 4.524741593 _15_ RTR  --- 0 AODV 48 [0 ffffffff e 800] ------- [14:255 -1:255 28 0] [0x2 3 2 [9 0] [28 6]] (REQUEST)
r 4.524741624 _27_ RTR  --- 0 AODV 48 [0 ffffffff e 800] ------- [14:255 -1:255 28 0] [0x2 3 2 [9 0] [28 6]] (REQUEST)
r 4.524741647 _6_ RTR  --- 0 AODV 48 [0 ffffffff e 800] ------- [14:255 -1:255 28 0] [0x2 3 2 [9 0] [28 6]] (REQUEST)
s 4.525232680 _24_ RTR  --- 0 AODV 48 [0 ffffffff 11 800] ------- [24:255 -1:255 26 0] [0x2 5 2 [9 0] [28 6]] (REQUEST)
s 4.525325674 _6_ RTR  --- 0 AODV 48 [0 ffffffff e 800] ------- [6:255 -1:255 27 0] [0x2 4 2 [9 0] [28 6]] (REQUEST)
s 4.525427680 _24_ MAC  --- 0 AODV 106 [0 ffffffff 18 800] ------- [24:255 -1:255 26 0] [0x2 5 2 [9 0] [28 6]] (REQUEST)
s 4.525511227 _28_ MAC  --- 0 RTS 44 [14ee 1 1c 0] 
D 4.525512057 _1_ MAC  COL 0 RTS 44 [14ee 1 1c 0] 
s 4.525861786 _7_ RTR  --- 0 AODV 48 [0 ffffffff e 800] ------- [7:255 -1:255 27 0] [0x2 4 2 [9 0] [28 6]] (REQUEST)
s 4.526094467 _26_ RTR  --- 0 AODV 48 [0 ffffffff b 800] ------- [26:255 -1:255 27 0] [0x2 4 2 [9 0] [28 6]] (REQUEST)
r 4.526276007 _15_ MAC  --- 0 AODV 48 [0 ffffffff 18 800] ------- [24:255 -1:255 26 0] [0x2 5 2 [9 0] [28 6]] (REQUEST)
r 4.526276034 _18_ MAC  --- 0 AODV 48 [0 ffffffff 18 800] ------- [24:255 -1:255 26 0] [0x2 5 2 [9 0] [28 6]] (REQUEST)
r 4.526276161 _13_ MAC  --- 0 AODV 48 [0 ffffffff 18 800] ------- [24:255 -1:255 26 0] [0x2 5 2 [9 0] [28 6]] (REQUEST)
r 4.526276318 _25_ MAC  --- 0 AODV 48 [0 ffffffff 18 800] ------- [24:255 -1:255 26 0] [0x2 5 2 [9 0] [28 6]] (REQUEST)
r 4.526276370 _17_ MAC  --- 0 AODV 48 [0 ffffffff 18 800] ------- [24:255 -1:255 26 0] [0x2 5 2 [9 0] [28 6]] (REQUEST)
r 4.526276403 _8_ MAC  --- 0 AODV 48 [0 ffffffff 18 800] ------- [24:255 -1:255 26 0] [0x2 5 2 [9 0] [28 6]] (REQUEST)
r 4.526301007 _15_ RTR  --- 0 AODV 48 [0 ffffffff 18 800] ------- [24:255 -1:255 26 0] [0x2 5 2 [9 0] [28 6]] (REQUEST)
r 4.526301034 _18_ RTR  --- 0 AODV 48 [0 ffffffff 18 800] ------- [24:255 -1:255 26 0] [0x2 5 2 [9 0] [28 6]] (REQUEST)
r 4.526301161 _13_ RTR  --- 0 AODV 48 [0 ffffffff 18 800] ------- [24:255 -1:255 26 0] [0x2 5 2 [9 0] [28 6]] (REQUEST)
r 4.526301318 _25_ RTR  --- 0 AODV 48 [0 ffffffff 18 800] ------- [24:255 -1:255 26 0] [0x2 5 2 [9 0] [28 6]] (REQUEST)
r 4.526301370 _17_ RTR  --- 0 AODV 48 [0 ffffffff 18 800] ------- [24:255 -1:255 26 0] [0x2 5 2 [9 0] [28 6]] (REQUEST)
r 4.526301403 _8_ RTR  --- 0 AODV 48 [0 ffffffff 18 800] ------- [24:255 -1:255 26 0] [0x2 5 2 [9 0] [28 6]] (REQUEST)
s 4.526316881 _16_ RTR  --- 0 AODV 48 [0 ffffffff b 800] ------- [16:255 -1:255 27 0] [0x2 4 2 [9 0] [28 6]] (REQUEST)
s 4.526551881 _16_ MAC  --- 0 AODV 106 [0 ffffffff 10 800] ------- [16:255 -1:255 27 0] [0x2 4 2 [9 0] [28 6]] (REQUEST)
s 4.527010571 _6_ MAC  --- 0 AODV 106 [0 ffffffff 6 800] ------- [6:255 -1:255 27 0] [0x2 4 2 [9 0] [28 6]] (REQUEST)
r 4.527400409 _29_ MAC  --- 0 AODV 48 [0 ffffffff 10 800] ------- [16:255 -1:255 27 0] [0x2 4 2 [9 0] [28 6]] (REQUEST)
r 4.527400562 _11_ MAC  --- 0 AODV 48 [0 ffffffff 10 800] ------- [16:255 -1:255 27 0] [0x2 4 2 [9 0] [28 6]] (REQUEST)
r 4.527400668 _27_ MAC  --- 0 AODV 48 [0 ffffffff 10 800] ------- [16:255 -1:255 27 0] [0x2 4 2 [9 0] [28 6]] (REQUEST)
s 4.527400791 _15_ RTR  --- 0 AODV 48 [0 ffffffff 11 800] ------- [15:255 -1:255 26 0] [0x2 5 2 [9 0] [28 6]] (REQUEST)
r 4.527425409 _29_ RTR  --- 0 AODV 48 [0 ffffffff 10 800] ------- [16:255 -1:255 27 0] [0x2 4 2 [9 0] [28 6]] (REQUEST)
r 4.527425562 _11_ RTR  --- 0 AODV 48 [0 ffffffff 10 800] ------- [16:255 -1:255 27 0] [0x2 4 2 [9 0] [28 6]] (REQUEST)
r 4.527425668 _27_ RTR  --- 0 AODV 48 [0 ffffffff 10 800] ------- [16:255 -1:255 27 0] [0x2 4 2 [9 0] [28 6]] (REQUEST)
s 4.527700984 _29_ RTR  --- 0 AODV 48 [0 ffffffff 10 800] ------- [29:255 -1:255 26 0] [0x2 5 2 [9 0] [28 6]] (REQUEST)
s 4.527775984 _29_ MAC  --- 0 AODV 106 [0 ffffffff 1d 800] ------- [29:255 -1:255 26 0] [0x2 5 2 [9 0] [28 6]] (REQUEST)
r 4.527858876 _19_ MAC  --- 0 AODV 48 [0 ffffffff 6 800] ------- [6:255 -1:255 27 0] [0x2 4 2 [9 0] [28 6]] (REQUEST)
r 4.527858877 _7_ MAC  --- 0 AODV 48 [0 ffffffff 6 800] ------- [6:255 -1:255 27 0] [0x2 4 2 [9 0] [28 6]] (REQUEST)
r 4.527858916 _12_ MAC  --- 0 AODV 48 [0 ffffffff 6 800] ------- [6:255 -1:255 27 0] [0x2 4 2 [9 0] [28 6]] (REQUEST)
r 4.527859298 _21_ MAC  --- 0 AODV 48 [0 ffffffff 6 800] ------- [6:255 -1:255 27 0] [0x2 4 2 [9 0] [28 6]] (REQUEST)
D 4.527859352 _14_ MAC  COL 0 AODV 106 [0 ffffffff 6 800] ------- [6:255 -1:255 27 0] [0x2 4 2 [9 0] [28 6]] (REQUEST)
r 4.527883876 _19_ RTR  --- 0 AODV 48 [0 ffffffff 6 800] ------- [6:255 -1:255 27 0] [0x2 4 2 [9 0] [28 6]] (REQUEST)
r 4.527883877 _7_ RTR  --- 0 AODV 48 [0 ffffffff 6 800] ------- [6:255 -1:255 27 0] [0x2 4 2 [9 0] [28 6]] (REQUEST)
r 4.527883916 _12_ RTR  --- 0 AODV 48 [0 ffffffff 6 800] ------- [6:255 -1:255 27 0] [0x2 4 2 [9 0] [28 6]] (REQUEST)
r 4.527884298 _21_ RTR  --- 0 AODV 48 [0 ffffffff 6 800] ------- [6:255 -1:255 27 0] [0x2 4 2 [9 0] [28 6]] (REQUEST)
s 4.528088877 _7_ MAC  --- 0 AODV 106 [0 ffffffff 7 800] ------- [7:255 -1:255 27 0] [0x2 4 2 [9 0] [28 6]] (REQUEST)
r 4.528624513 _16_ MAC  --- 0 AODV 48 [0 ffffffff 1d 800] ------- [29:255 -1:255 26 0] [0x2 5 2 [9 0] [28 6]] (REQUEST)
r 4.528624666 _2_ MAC  --- 0 AODV 48 [0 ffffffff 1d 800] ------- [29:255 -1:255 26 0] [0x2 5 2 [9 0] [28 6]] (REQUEST)
r 4.528624719 _23_ MAC  --- 0 AODV 48 [0 ffffffff 1d 800] ------- [29:255 -1:255 26 0] [0x2 5 2 [9 0] [28 6]] (REQUEST)
r 4.528624743 _22_ MAC  --- 0 AODV 48 [0 ffffffff 1d 800] ------- [29:255 -1:255 26 0] [0x2 5 2 [9 0] [28 6]] (REQUEST)
r 4.528624788 _10_ MAC  --- 0 AODV 48 [0 ffffffff 1d 800] ------- [29:255 -1:255 26 0] [0x2 5 2 [9 0] [28 6]] (REQUEST)
r 4.528649513 _16_ RTR  --- 0 AODV 48 [0 ffffffff 1d 800] ------- [29:255 -1:255 26 0] [0x2 5 2 [9 0] [28 6]] (REQUEST)
r 4.528649666 _2_ RTR  --- 0 AODV 48 [0 ffffffff 1d 800] ------- [29:255 -1:255 26 0] [0x2 5 2 [9 0] [28 6]] (REQUEST)
r 4.528649719 _23_ RTR  --- 0 AODV 48 [0 ffffffff 1d 800] ------- [29:255 -1:255 26 0] [0x2 5 2 [9 0] [28 6]] (REQUEST)
s 4.528649719 _23_ RTR  --- 0 AODV 44 [0 0 0 0] ------- [23:255 28:255 30 29] [0x4 1 [9 4] 10.000000] (REPLY)
r 4.528649743 _22_ RTR  --- 0 AODV 48 [0 ffffffff 1d 800] ------- [29:255 -1:255 26 0] [0x2 5 2 [9 0] [28 6]] (REQUEST)
r 4.528649788 _10_ RTR  --- 0 AODV 48 [0 ffffffff 1d 800] ------- [29:255 -1:255 26 0] [0x2 5 2 [9 0] [28 6]] (REQUEST)
s 4.528824719 _23_ MAC  --- 0 ARP 86 [0 ffffffff 17 806] ------- [REQUEST 23/23 0/29]
s 4.528919645 _8_ RTR  --- 0 AODV 48 [0 ffffffff 18 800] ------- [8:255 -1:255 25 0] [0x2 6 2 [9 0] [28 6]] (REQUEST)
r 4.528936888 _19_ MAC  --- 0 AODV 48 [0 ffffffff 7 800] ------- [7:255 -1:255 27 0] [0x2 4 2 [9 0] [28 6]] (REQUEST)
r 4.528937094 _12_ MAC  --- 0 AODV 48 [0 ffffffff 7 800] ------- [7:255 -1:255 27 0] [0x2 4 2 [9 0] [28 6]] (REQUEST)
r 4.528937183 _6_ MAC  --- 0 AODV 48 [0 ffffffff 7 800] ------- [7:255 -1:255 27 0] [0x2 4 2 [9 0] [28 6]] (REQUEST)
r 4.528937393 _21_ MAC  --- 0 AODV 48 [0 ffffffff 7 800] ------- [7:255 -1:255 27 0] [0x2 4 2 [9 0] [28 6]] (REQUEST)
r 4.528937484 _14_ MAC  --- 0 AODV 48 [0 ffffffff 7 800] ------- [7:255 -1:255 27 0] [0x2 4 2 [9 0] [28 6]] (REQUEST)
r 4.528961888 _19_ RTR  --- 0 AODV 48 [0 ffffffff 7 800] ------- [7:255 -1:255 27 0] [0x2 4 2 [9 0] [28 6]] (REQUEST)
r 4.528962094 _12_ RTR  --- 0 AODV 48 [0 ffffffff 7 800] ------- [7:255 -1:255 27 0] [0x2 4 2 [9 0] [28 6]] (REQUEST)
r 4.528962183 _6_ RTR  --- 0 AODV 48 [0 ffffffff 7 800] ------- [7:255 -1:255 27 0] [0x2 4 2 [9 0] [28 6]] (REQUEST)
r 4.528962393 _21_ RTR  --- 0 AODV 48 [0 ffffffff 7 800] ------- [7:255 -1:255 27 0] [0x2 4 2 [9 0] [28 6]] (REQUEST)
r 4.528962484 _14_ RTR  --- 0 AODV 48 [0 ffffffff 7 800] ------- [7:255 -1:255 27 0] [0x2 4 2 [9 0] [28 6]] (REQUEST)
s 4.529392627 _8_ MAC  --- 0 AODV 106 [0 ffffffff 8 800] ------- [8:255 -1:255 25 0] [0x2 6 2 [9 0] [28 6]] (REQUEST)
r 4.529512826 _2_ MAC  --- 0 ARP 28 [0 ffffffff 17 806] ------- [REQUEST 23/23 0/29]
r 4.529513191 _9_ MAC  --- 0 ARP 28 [0 ffffffff 17 806] ------- [REQUEST 23/23 0/29]
r 4.529513223 _22_ MAC  --- 0 ARP 28 [0 ffffffff 17 806] ------- [REQUEST 23/23 0/29]
r 4.529513252 _10_ MAC  --- 0 ARP 28 [0 ffffffff 17 806] ------- [REQUEST 23/23 0/29]
r 4.529513288 _4_ MAC  --- 0 ARP 28 [0 ffffffff 17 806] ------- [REQUEST 23/23 0/29]
r 4.529513377 _3_ MAC  --- 0 ARP 28 [0 ffffffff 17 806] ------- [REQUEST 23/23 0/29]
r 4.529513455 _29_ MAC  --- 0 ARP 28 [0 ffffffff 17 806] ------- [REQUEST 23/23 0/29]
s 4.529703455 _29_ MAC  --- 0 RTS 44 [52e 17 1d 0] 
r 4.530056190 _23_ MAC  --- 0 RTS 44 [52e 17 1d 0] 
s 4.530066190 _23_ MAC  --- 0 CTS 38 [3f4 1d 0 0] 
s 4.530072200 _28_ MAC  --- 0 RTS 44 [14ee 1 1c 0] 
r 4.530240749 _25_ MAC  --- 0 AODV 48 [0 ffffffff 8 800] ------- [8:255 -1:255 25 0] [0x2 6 2 [9 0] [28 6]] (REQUEST)
r 4.530241038 _13_ MAC  --- 0 AODV 48 [0 ffffffff 8 800] ------- [8:255 -1:255 25 0] [0x2 6 2 [9 0] [28 6]] (REQUEST)
r 4.530241058 _18_ MAC  --- 0 AODV 48 [0 ffffffff 8 800] ------- [8:255 -1:255 25 0] [0x2 6 2 [9 0] [28 6]] (REQUEST)
r 4.530241350 _24_ MAC  --- 0 AODV 48 [0 ffffffff 8 800] ------- [8:255 -1:255 25 0] [0x2 6 2 [9 0] [28 6]] (REQUEST)
r 4.530241376 _0_ MAC  --- 0 AODV 48 [0 ffffffff 8 800] ------- [8:255 -1:255 25 0] [0x2 6 2 [9 0] [28 6]] (REQUEST)
r 4.530265749 _25_ RTR  --- 0 AODV 48 [0 ffffffff 8 800] ------- [8:255 -1:255 25 0] [0x2 6 2 [9 0] [28 6]] (REQUEST)
r 4.530266038 _13_ RTR  --- 0 AODV 48 [0 ffffffff 8 800] ------- [8:255 -1:255 25 0] [0x2 6 2 [9 0] [28 6]] (REQUEST)
r 4.530266058 _18_ RTR  --- 0 AODV 48 [0 ffffffff 8 800] ------- [8:255 -1:255 25 0] [0x2 6 2 [9 0] [28 6]] (REQUEST)
r 4.530266350 _24_ RTR  --- 0 AODV 48 [0 ffffffff 8 800] ------- [8:255 -1:255 25 0] [0x2 6 2 [9 0] [28 6]] (REQUEST)
r 4.530266376 _0_ RTR  --- 0 AODV 48 [0 ffffffff 8 800] ------- [8:255 -1:255 25 0] [0x2 6 2 [9 0] [28 6]] (REQUEST)
r 4.530370926 _29_ MAC  --- 0 CTS 38 [3f4 1d 0 0] 
s 4.530380926 _29_ MAC  --- 0 ARP 86 [13a 17 1d 806] ------- [REPLY 29/29 23/23]
D 4.530425030 _1_ MAC  COL 0 RTS 44 [14ee 1 1c 0] 
s 4.530437067 _10_ RTR  --- 0 AODV 48 [0 ffffffff 1d 800] ------- [10:255 -1:255 25 0] [0x2 6 2 [9 0] [28 6]] (REQUEST)
s 4.530717007 _2_ RTR  --- 0 AODV 48 [0 ffffffff 1d 800] ------- [2:255 -1:255 25 0] [0x2 6 2 [9 0] [28 6]] (REQUEST)
s 4.530915510 _15_ MAC  --- 0 AODV 106 [0 ffffffff f 800] ------- [15:255 -1:255 26 0] [0x2 5 2 [9 0] [28 6]] (REQUEST)
r 4.531069661 _23_ MAC  --- 0 ARP 28 [13a 17 1d 806] ------- [REPLY 29/29 23/23]
s 4.531079661 _23_ MAC  --- 0 ACK 38 [0 1d 0 0] 
r 4.531384396 _29_ MAC  --- 0 ACK 38 [0 1d 0 0] 
s 4.531513768 _2_ MAC  --- 0 AODV 106 [0 ffffffff 2 800] ------- [2:255 -1:255 25 0] [0x2 6 2 [9 0] [28 6]] (REQUEST)
s 4.531749381 _13_ RTR  --- 0 AODV 48 [0 ffffffff 18 800] ------- [13:255 -1:255 25 0] [0x2 6 2 [9 0] [28 6]] (REQUEST)
r 4.531763837 _24_ MAC  --- 0 AODV 48 [0 ffffffff f 800] ------- [15:255 -1:255 26 0] [0x2 5 2 [9 0] [28 6]] (REQUEST)
r 4.531763888 _17_ MAC  --- 0 AODV 48 [0 ffffffff f 800] ------- [15:255 -1:255 26 0] [0x2 5 2 [9 0] [28 6]] (REQUEST)
r 4.531764137 _18_ MAC  --- 0 AODV 48 [0 ffffffff f 800] ------- [15:255 -1:255 26 0] [0x2 5 2 [9 0] [28 6]] (REQUEST)
r 4.531764237 _14_ MAC  --- 0 AODV 48 [0 ffffffff f 800] ------- [15:255 -1:255 26 0] [0x2 5 2 [9 0] [28 6]] (REQUEST)
r 4.531764274 _13_ MAC  --- 0 AODV 48 [0 ffffffff f 800] ------- [15:255 -1:255 26 0] [0x2 5 2 [9 0] [28 6]] (REQUEST)
r 4.531788837 _24_ RTR  --- 0 AODV 48 [0 ffffffff f 800] ------- [15:255 -1:255 26 0] [0x2 5 2 [9 0] [28 6]] (REQUEST)
r 4.531788888 _17_ RTR  --- 0 AODV 48 [0 ffffffff f 800] ------- [15:255 -1:255 26 0] [0x2 5 2 [9 0] [28 6]] (REQUEST)
r 4.531789137 _18_ RTR  --- 0 AODV 48 [0 ffffffff f 800] ------- [15:255 -1:255 26 0] [0x2 5 2 [9 0] [28 6]] (REQUEST)
r 4.531789237 _14_ RTR  --- 0 AODV 48 [0 ffffffff f 800] ------- [15:255 -1:255 26 0] [0x2 5 2 [9 0] [28 6]] (REQUEST)
r 4.531789274 _13_ RTR  --- 0 AODV 48 [0 ffffffff f 800] ------- [15:255 -1:255 26 0] [0x2 5 2 [9 0] [28 6]] (REQUEST)
s 4.532056076 _28_ RTR  --- 1 cbr 532 [0 0 0 0] ------- [28:0 9:0 30 1] [1] 0 0
s 4.532164381 _13_ MAC  --- 0 AODV 106 [0 ffffffff d 800] ------- [13:255 -1:255 25 0] [0x2 6 2 [9 0] [28 6]] (REQUEST)
r 4.532361875 _23_ MAC  --- 0 AODV 48 [0 ffffffff 2 800] ------- [2:255 -1:255 25 0] [0x2 6 2 [9 0] [28 6]] (REQUEST)
r 4.532362170 _22_ MAC  --- 0 AODV 48 [0 ffffffff 2 800] ------- [2:255 -1:255 25 0] [0x2 6 2 [9 0] [28 6]] (REQUEST)
r 4.532362202 _10_ MAC  --- 0 AODV 48 [0 ffffffff 2 800] ------- [2:255 -1:255 25 0] [0x2 6 2 [9 0] [28 6]] (REQUEST)
r 4.532362249 _9_ MAC  --- 0 AODV 48 [0 ffffffff 2 800] ------- [2:255 -1:255 25 0] [0x2 6 2 [9 0] [28 6]] (REQUEST)
D 4.532362432 _4_ MAC  COL 0 AODV 106 [0 ffffffff 2 800] ------- [2:255 -1:255 25 0] [0x2 6 2 [9 0] [28 6]] (REQUEST)
r 4.532362450 _29_ MAC  --- 0 AODV 48 [0 ffffffff 2 800] ------- [2:255 -1:255 25 0] [0x2 6 2 [9 0] [28 6]] (REQUEST)
r 4.532362492 _3_ MAC  --- 0 AODV 48 [0 ffffffff 2 800] ------- [2:255 -1:255 25 0] [0x2 6 2 [9 0] [28 6]] (REQUEST)
r 4.532386875 _23_ RTR  --- 0 AODV 48 [0 ffffffff 2 800] ------- [2:255 -1:255 25 0] [0x2 6 2 [9 0] [28 6]] (REQUEST)
r 4.532387170 _22_ RTR  --- 0 AODV 48 [0 ffffffff 2 800] ------- [2:255 -1:255 25 0] [0x2 6 2 [9 0] [28 6]] (REQUEST)
r 4.532387202 _10_ RTR  --- 0 AODV 48 [0 ffffffff 2 800] ------- [2:255 -1:255 25 0] [0x2 6 2 [9 0] [28 6]] (REQUEST)
r 4.532387249 _9_ RTR  --- 0 AODV 48 [0 ffffffff 2 800] ------- [2:255 -1:255 25 0] [0x2 6 2 [9 0] [28 6]] (REQUEST)
s 4.532387249 _9_ RTR  --- 0 AODV 44 [0 0 0 0] ------- [9:255 28:255 30 2] [0x4 1 [9 4] 10.000000] (REPLY)
r 4.532387450 _29_ RTR  --- 0 AODV 48 [0 ffffffff 2 800] ------- [2:255 -1:255 25 0] [0x2 6 2 [9 0] [28 6]] (REQUEST)
r 4.532387492 _3_ RTR  --- 0 AODV 48 [0 ffffffff 2 800] ------- [2:255 -1:255 25 0] [0x2 6 2 [9 0] [28 6]] (REQUEST)
s 4.532432202 _10_ MAC  --- 0 AODV 106 [0 ffffffff a 800] ------- [10:255 -1:255 25 0] [0x2 6 2 [9 0] [28 6]] (REQUEST)
r 4.533012518 _18_ MAC  --- 0 AODV 48 [0 ffffffff d 800] ------- [13:255 -1:255 25 0] [0x2 6 2 [9 0] [28 6]] (REQUEST)
r 4.533012670 _25_ MAC  --- 0 AODV 48 [0 ffffffff d 800] ------- [13:255 -1:255 25 0] [0x2 6 2 [9 0] [28 6]] (REQUEST)
r 4.533012792 _8_ MAC  --- 0 AODV 48 [0 ffffffff d 800] ------- [13:255 -1:255 25 0] [0x2 6 2 [9 0] [28 6]] (REQUEST)
r 4.533012862 _24_ MAC  --- 0 AODV 48 [0 ffffffff d 800] ------- [13:255 -1:255 25 0] [0x2 6 2 [9 0] [28 6]] (REQUEST)
r 4.533013145 _15_ MAC  --- 0 AODV 48 [0 ffffffff d 800] ------- [13:255 -1:255 25 0] [0x2 6 2 [9 0] [28 6]] (REQUEST)
r 4.533037518 _18_ RTR  --- 0 AODV 48 [0 ffffffff d 800] ------- [13:255 -1:255 25 0] [0x2 6 2 [9 0] [28 6]] (REQUEST)
r 4.533037670 _25_ RTR  --- 0 AODV 48 [0 ffffffff d 800] ------- [13:255 -1:255 25 0] [0x2 6 2 [9 0] [28 6]] (REQUEST)
r 4.533037792 _8_ RTR  --- 0 AODV 48 [0 ffffffff d 800] ------- [13:255 -1:255 25 0] [0x2 6 2 [9 0] [28 6]] (REQUEST)
r 4.533037862 _24_ RTR  --- 0 AODV 48 [0 ffffffff d 800] ------- [13:255 -1:255 25 0] [0x2 6 2 [9 0] [28 6]] (REQUEST)
r 4.533038145 _15_ RTR  --- 0 AODV 48 [0 ffffffff d 800] ------- [13:255 -1:255 25 0] [0x2 6 2 [9 0] [28 6]] (REQUEST)
r 4.533280249 _22_ MAC  --- 0 AODV 48 [0 ffffffff a 800] ------- [10:255 -1:255 25 0] [0x2 6 2 [9 0] [28 6]] (REQUEST)
r 4.533280636 _2_ MAC  --- 0 AODV 48 [0 ffffffff a 800] ------- [10:255 -1:255 25 0] [0x2 6 2 [9 0] [28 6]] (REQUEST)
r 4.533280735 _23_ MAC  --- 0 AODV 48 [0 ffffffff a 800] ------- [10:255 -1:255 25 0] [0x2 6 2 [9 0] [28 6]] (REQUEST)
r 4.533280764 _9_ MAC  --- 0 AODV 48 [0 ffffffff a 800] ------- [10:255 -1:255 25 0] [0x2 6 2 [9 0] [28 6]] (REQUEST)
r 4.533281006 _29_ MAC  --- 0 AODV 48 [0 ffffffff a 800] ------- [10:255 -1:255 25 0] [0x2 6 2 [9 0] [28 6]] (REQUEST)
s 4.533287766 _18_ RTR  --- 0 AODV 48 [0 ffffffff 18 800] ------- [18:255 -1:255 25 0] [0x2 6 2 [9 0] [28 6]] (REQUEST)
r 4.533305249 _22_ RTR  --- 0 AODV 48 [0 ffffffff a 800] ------- [10:255 -1:255 25 0] [0x2 6 2 [9 0] [28 6]] (REQUEST)
r 4.533305636 _2_ RTR  --- 0 AODV 48 [0 ffffffff a 800] ------- [10:255 -1:255 25 0] [0x2 6 2 [9 0] [28 6]] (REQUEST)
r 4.533305735 _23_ RTR  --- 0 AODV 48 [0 ffffffff a 800] ------- [10:255 -1:255 25 0] [0x2 6 2 [9 0] [28 6]] (REQUEST)
r 4.533305764 _9_ RTR  --- 0 AODV 48 [0 ffffffff a 800] ------- [10:255 -1:255 25 0] [0x2 6 2 [9 0] [28 6]] (REQUEST)
r 4.533306006 _29_ RTR  --- 0 AODV 48 [0 ffffffff a 800] ------- [10:255 -1:255 25 0] [0x2 6 2 [9 0] [28 6]] (REQUEST)
s 4.533390764 _9_ MAC  --- 0 ARP 86 [0 ffffffff 9 806] ------- [REQUEST 9/9 0/2]
s 4.533654942 _19_ RTR  --- 0 AODV 48 [0 ffffffff e 800] ------- [19:255 -1:255 27 0] [0x2 4 2 [9 0] [28 6]] (REQUEST)
s 4.533962766 _18_ MAC  --- 0 AODV 106 [0 ffffffff 12 800] ------- [18:255 -1:255 25 0] [0x2 6 2 [9 0] [28 6]] (REQUEST)
r 4.534079159 _3_ MAC  --- 0 ARP 28 [0 ffffffff 9 806] ------- [REQUEST 9/9 0/2]
r 4.534079237 _23_ MAC  --- 0 ARP 28 [0 ffffffff 9 806] ------- [REQUEST 9/9 0/2]
r 4.534079245 _2_ MAC  --- 0 ARP 28 [0 ffffffff 9 806] ------- [REQUEST 9/9 0/2]
r 4.534079312 _4_ MAC  --- 0 ARP 28 [0 ffffffff 9 806] ------- [REQUEST 9/9 0/2]
r 4.534079327 _10_ MAC  --- 0 ARP 28 [0 ffffffff 9 806] ------- [REQUEST 9/9 0/2]
r 4.534079338 _22_ MAC  --- 0 ARP 28 [0 ffffffff 9 806] ------- [REQUEST 9/9 0/2]
s 4.534203957 _12_ RTR  --- 0 AODV 48 [0 ffffffff e 800] ------- [12:255 -1:255 27 0] [0x2 4 2 [9 0] [28 6]] (REQUEST)