M 0.00000 0 (298.35, 170.06, 0.00), (298.35, 170.06), 20.00
M 1.00000 0 (298.35, 170.06, 0.00), (296.48, 151.82), 19.07
M 1.00000 1 (598.35, 438.86, 0.00), (598.35, 438.86), 20.00
M 2.00000 0 (296.48, 151.82, 0.00), (277.13, 151.65), 19.36
M 2.00000 1 (598.35, 438.86, 0.00), (598.35, 419.63), 19.23
M 2.00000 2 (889.12, 751.65, 0.00), (889.12, 751.65), 20.00
s 2.556838879 _0_ AGT  --- 0 cbr 512 [0 0 0 0] ------- [0:0 1:0 32 0] [0] 0 0
r 2.556838879 _0_ RTR  --- 0 cbr 512 [0 0 0 0] ------- [0:0 1:0 32 0] [0] 0 0
s 2.556838879 _0_ RTR  --- 0 AODV 48 [0 0 0 0] ------- [0:255 -1:255 30 0] [0x2 1 1 [1 0] [0 4]] (REQUEST)
s 2.556953879 _0_ MAC  --- 0 AODV 106 [0 ffffffff 0 800] ------- [0:255 -1:255 30 0] [0x2 1 1 [1 0] [0 4]] (REQUEST)
r 2.557802533 _6_ MAC  --- 0 AODV 48 [0 ffffffff 0 800] ------- [0:255 -1:255 30 0] [0x2 1 1 [1 0] [0 4]] (REQUEST)
r 2.557827533 _6_ RTR  --- 0 AODV 48 [0 ffffffff 0 800] ------- [0:255 -1:255 30 0] [0x2 1 1 [1 0] [0 4]] (REQUEST)
s 2.558708759 _6_ RTR  --- 0 AODV 48 [0 ffffffff 0 800] ------- [6:255 -1:255 29 0] [0x2 2 1 [1 0] [0 4]] (REQUEST)
s 2.559103759 _6_ MAC  --- 0 AODV 106 [0 ffffffff 6 800] ------- [6:255 -1:255 29 0] [0x2 2 1 [1 0] [0 4]] (REQUEST)
r 2.559952413 _0_ MAC  --- 0 AODV 48 [0 ffffffff 6 800] ------- [6:255 -1:255 29 0] [0x2 2 1 [1 0] [0 4]] (REQUEST)
r 2.559977413 _0_ RTR  --- 0 AODV 48 [0 ffffffff 6 800] ------- [6:255 -1:255 29 0] [0x2 2 1 [1 0] [0 4]] (REQUEST)
M 3.00000 0 (277.13, 151.65, 0.00), (257.45, 151.65), 19.68
M 3.00000 1 (598.35, 419.63, 0.00), (598.35, 400.59), 19.03
M 3.00000 2 (889.12, 751.65, 0.00), (869.83, 751.65), 19.29
M 3.00000 3 (1.65, 559.44, 0.00), (1.65, 559.44), 15.70
s 3.057178456 _0_ AGT  --- 1 cbr 512 [0 0 0 0] ------- [0:0 1:0 32 0] [1] 0 0
r 3.057178456 _0_ RTR  --- 1 cbr 512 [0 0 0 0] ------- [0:0 1:0 32 0] [1] 0 0
s 3.870140228 _0_ AGT  --- 2 cbr 512 [0 0 0 0] ------- [0:0 1:0 32 0] [2] 0 0
r 3.870140228 _0_ RTR  --- 2 cbr 512 [0 0 0 0] ------- [0:0 1:0 32 0] [2] 0 0
M 4.00000 0 (257.45, 151.65, 0.00), (238.33, 151.65), 19.13
M 4.00000 1 (598.35, 400.60, 0.00), (598.35, 380.60), 19.99
M 4.00000 2 (869.83, 751.65, 0.00), (850.44, 751.65), 19.39
M 4.00000 3 (1.65, 559.44, 0.00), (1.65, 575.13), 15.69
M 4.00000 4 (65.69, 751.65, 0.00), (65.69, 751.65), 20.00
s 4.500000000 _0_ RTR  --- 0 AODV 48 [0 0 0 0] ------- [0:255 -1:255 30 0] [0x2 1 2 [1 0] [0 6]] (REQUEST)
s 4.500315000 _0_ MAC  --- 0 AODV 106 [0 ffffffff 0 800] ------- [0:255 -1:255 30 0] [0x2 1 2 [1 0] [0 6]] (REQUEST)
r 4.501163528 _6_ MAC  --- 0 AODV 48 [0 ffffffff 0 800] ------- [0:255 -1:255 30 0] [0x2 1 2 [1 0] [0 6]] (REQUEST)
r 4.501188528 _6_ RTR  --- 0 AODV 48 [0 ffffffff 0 800] ------- [0:255 -1:255 30 0] [0x2 1 2 [1 0] [0 6]] (REQUEST)
s 4.504279318 _6_ RTR  --- 0 AODV 48 [0 ffffffff 0 800] ------- [6:255 -1:255 29 0] [0x2 2 2 [1 0] [0 6]] (REQUEST)
s 4.504594318 _6_ MAC  --- 0 AODV 106 [0 ffffffff 6 800] ------- [6:255 -1:255 29 0] [0x2 2 2 [1 0] [0 6]] (REQUEST)
r 4.505442846 _0_ MAC  --- 0 AODV 48 [0 ffffffff 6 800] ------- [6:255 -1:255 29 0] [0x2 2 2 [1 0] [0 6]] (REQUEST)
r 4.505467846 _0_ RTR  --- 0 AODV 48 [0 ffffffff 6 800] ------- [6:255 -1:255 29 0] [0x2 2 2 [1 0] [0 6]] (REQUEST)
M 5.00000 0 (238.33, 151.65, 0.00), (218.40, 151.65), 19.92
M 5.00000 1 (598.35, 380.61, 0.00), (598.35, 360.95), 19.66
M 5.00000 2 (850.44, 751.65, 0.00), (831.58, 751.65), 18.86
M 5.00000 3 (1.65, 575.13, 0.00), (1.65, 586.69), 11.56
M 5.00000 4 (65.69, 751.65, 0.00), (46.58, 751.65), 19.11
M 5.00000 5 (751.65, 311.24, 0.00), (751.65, 311.24), 20.00
s 5.186616279 _0_ AGT  --- 3 cbr 512 [0 0 0 0] ------- [0:0 1:0 32 0] [3] 0 0
r 5.186616279 _0_ RTR  --- 3 cbr 512 [0 0 0 0] ------- [0:0 1:0 32 0] [3] 0 0
s 5.729410837 _0_ AGT  --- 4 cbr 512 [0 0 0 0] ------- [0:0 1:0 32 0] [4] 0 0
r 5.729410837 _0_ RTR  --- 4 cbr 512 [0 0 0 0] ------- [0:0 1:0 32 0] [4] 0 0
M 6.00000 0 (218.41, 151.65, 0.00), (198.80, 151.65), 19.60
M 6.00000 1 (598.35, 360.95, 0.00), (598.35, 341.61), 19.33
M 6.00000 2 (831.58, 751.65, 0.00), (812.40, 751.65), 19.18
M 6.00000 3 (1.65, 586.69, 0.00), (1.65, 593.75), 7.06
M 6.00000 4 (46.58, 751.65, 0.00), (30.69, 751.65), 15.88
M 6.00000 5 (751.65, 311.24, 0.00), (751.65, 330.09), 18.85
M 6.00000 6 (89.53, 151.65, 0.00), (89.53, 151.65), 20.00
s 6.869478496 _0_ AGT  --- 5 cbr 512 [0 0 0 0] ------- [0:0 1:0 32 0] [5] 0 0
r 6.869478496 _0_ RTR  --- 5 cbr 512 [0 0 0 0] ------- [0:0 1:0 32 0] [5] 0 0
M 7.00000 0 (198.81, 151.65, 0.00), (181.60, 151.65), 17.21
M 7.00000 1 (598.35, 341.62, 0.00), (598.35, 325.78), 15.84
M 7.00000 2 (812.40, 751.65, 0.00), (792.44, 751.65), 19.96
M 7.00000 3 (1.65, 593.75, 0.00), (1.65, 592.31), 9.27
M 7.00000 4 (30.70, 751.65, 0.00), (18.87, 751.65), 11.82
M 7.00000 5 (751.65, 330.09, 0.00), (751.65, 349.88), 19.79
M 7.00000 6 (89.53, 151.65, 0.00), (70.77, 151.65), 18.76
M 7.00000 7 (892.52, 901.65, 0.00), (892.52, 901.65), 20.00
s 7.483286744 _0_ AGT  --- 6 cbr 512 [0 0 0 0] ------- [0:0 1:0 32 0] [6] 0 0
r 7.483286744 _0_ RTR  --- 6 cbr 512 [0 0 0 0] ------- [0:0 1:0 32 0] [6] 0 0
M 8.00000 0 (181.60, 151.65, 0.00), (168.89, 151.65), 12.71
M 8.00000 1 (598.35, 325.78, 0.00), (598.35, 314.39), 11.39
M 8.00000 2 (792.44, 751.65, 0.00), (776.69, 751.65), 15.75
M 8.00000 3 (1.65, 592.31, 0.00), (1.65, 580.79), 11.52
M 8.00000 4 (18.88, 751.65, 0.00), (10.22, 751.65), 8.65
M 8.00000 5 (751.65, 349.88, 0.00), (751.65, 369.35), 19.47
M 8.00000 6 (70.77, 151.65, 0.00), (52.03, 151.65), 18.75
M 8.00000 7 (892.52, 901.65, 0.00), (872.81, 901.65), 19.71
M 8.00000 8 (571.65, 451.65, 0.00), (571.65, 451.65), 20.00
s 8.500000000 _0_ RTR  --- 0 AODV 48 [0 0 0 0] ------- [0:255 -1:255 30 0] [0x2 1 3 [1 0] [0 8]] (REQUEST)
s 8.500235000 _0_ MAC  --- 0 AODV 106 [0 ffffffff 0 800] ------- [0:255 -1:255 30 0] [0x2 1 3 [1 0] [0 8]] (REQUEST)
r 8.501083380 _6_ MAC  --- 0 AODV 48 [0 ffffffff 0 800] ------- [0:255 -1:255 30 0] [0x2 1 3 [1 0] [0 8]] (REQUEST)
r 8.501108380 _6_ RTR  --- 0 AODV 48 [0 ffffffff 0 800] ------- [0:255 -1:255 30 0] [0x2 1 3 [1 0] [0 8]] (REQUEST)
s 8.502049768 _6_ RTR  --- 0 AODV 48 [0 ffffffff 0 800] ------- [6:255 -1:255 29 0] [0x2 2 3 [1 0] [0 8]] (REQUEST)
s 8.502444768 _6_ MAC  --- 0 AODV 106 [0 ffffffff 6 800] ------- [6:255 -1:255 29 0] [0x2 2 3 [1 0] [0 8]] (REQUEST)
r 8.503293148 _0_ MAC  --- 0 AODV 48 [0 ffffffff 6 800] ------- [6:255 -1:255 29 0] [0x2 2 3 [1 0] [0 8]] (REQUEST)
r 8.503318148 _0_ RTR  --- 0 AODV 48 [0 ffffffff 6 800] ------- [6:255 -1:255 29 0] [0x2 2 3 [1 0] [0 8]] (REQUEST)
s 8.843014442 _0_ AGT  --- 7 cbr 512 [0 0 0 0] ------- [0:0 1:0 32 0] [7] 0 0
r 8.843014442 _0_ RTR  --- 7 cbr 512 [0 0 0 0] ------- [0:0 1:0 32 0] [7] 0 0
M 9.00000 0 (168.89, 151.65, 0.00), (160.39, 151.65), 8.51
M 9.00000 1 (598.35, 314.39, 0.00), (598.35, 306.91), 7.48
M 9.00000 2 (776.69, 751.65, 0.00), (765.43, 751.65), 11.25
M 9.00000 3 (1.65, 580.79, 0.00), (1.65, 567.44), 13.35
M 9.00000 4 (10.23, 751.65, 0.00), (5.87, 751.65), 4.36
M 9.00000 5 (751.65, 369.35, 0.00), (751.65, 388.48), 19.13
M 9.00000 6 (52.03, 151.65, 0.00), (34.70, 151.65), 17.33
M 9.00000 7 (872.81, 901.65, 0.00), (853.70, 901.65), 19.10
M 9.00000 8 (571.65, 451.65, 0.00), (552.87, 451.65), 18.78
M 9.00000 9 (760.38, 301.65, 0.00), (760.38, 301.65), 5.06
s 9.601102391 _0_ AGT  --- 8 cbr 512 [0 0 0 0] ------- [0:0 1:0 32 0] [8] 0 0
r 9.601102391 _0_ RTR  --- 8 cbr 512 [0 0 0 0] ------- [0:0 1:0 32 0] [8] 0 0
M 10.00000 0 (160.39, 151.65, 0.00), (156.38, 151.65), 4.01
M 10.00000 1 (598.35, 306.91, 0.00), (599.55, 303.32), 4.07
M 10.00000 2 (765.44, 751.65, 0.00), (758.68, 751.65), 6.75
M 10.00000 3 (1.65, 567.44, 0.00), (1.65, 552.33), 15.11
M 10.00000 4 (5.87, 751.65, 0.00), (5.76, 751.65), 0.11
M 10.00000 5 (751.65, 388.48, 0.00), (751.65, 407.24), 18.76
M 10.00000 6 (34.70, 151.65, 0.00), (20.95, 151.65), 13.75
M 10.00000 7 (853.71, 901.65, 0.00), (833.90, 901.65), 19.80
M 10.00000 8 (552.87, 451.65, 0.00), (532.90, 451.65), 19.96
M 10.00000 9 (760.38, 301.65, 0.00), (756.18, 301.65), 4.20
s 10.509788067 _0_ AGT  --- 9 cbr 512 [0 0 0 0] ------- [0:0 1:0 32 0] [9] 0 0
r 10.509788067 _0_ RTR  --- 9 cbr 512 [0 0 0 0] ------- [0:0 1:0 32 0] [9] 0 0
M 11.00000 0 (156.38, 151.65, 0.00), (155.92, 151.65), 0.46
M 11.00000 1 (599.55, 303.32, 0.00), (601.65, 308.24), 6.40
M 11.00000 2 (758.69, 751.65, 0.00), (756.42, 751.65), 2.25
M 11.00000 3 (1.65, 552.33, 0.00), (1.65, 535.02), 17.30
M 11.00000 4 (5.76, 751.65, 0.00), (5.75, 751.65), 0.01
M 11.00000 5 (751.65, 407.24, 0.00), (751.65, 424.55), 17.32
M 11.00000 6 (20.95, 151.65, 0.00), (11.70, 151.65), 9.25
M 11.00000 7 (833.91, 901.65, 0.00), (814.34, 901.65), 19.56
M 11.00000 8 (532.91, 451.65, 0.00), (513.02, 451.65), 19.89
M 11.00000 9 (756.18, 301.65, 0.00), (755.87, 301.65), 0.31
s 11.528436862 _0_ AGT  --- 10 cbr 512 [0 0 0 0] ------- [0:0 1:0 32 0] [10] 0 0
r 11.528436862 _0_ RTR  --- 10 cbr 512 [0 0 0 0] ------- [0:0 1:0 32 0] [10] 0 0
M 12.00000 0 (155.92, 151.65, 0.00), (155.77, 151.65), 0.16
M 12.00000 1 (601.65, 308.24, 0.00), (601.65, 316.43), 8.20
M 12.00000 2 (756.44, 751.65, 0.00), (755.77, 751.65), 0.66
M 12.00000 3 (1.65, 535.03, 0.00), (1.65, 515.50), 19.53
M 12.00000 4 (5.75, 751.65, 0.00), (5.75, 751.65), 0.00
M 12.00000 5 (751.65, 424.55, 0.00), (751.65, 437.37), 12.82
M 12.00000 6 (11.70, 151.65, 0.00), (6.93, 151.65), 4.77
M 12.00000 7 (814.35, 901.65, 0.00), (794.62, 901.65), 19.72
M 12.00000 8 (513.02, 451.65, 0.00), (493.90, 451.65), 19.12
M 12.00000 9 (755.87, 301.65, 0.00), (755.78, 301.65), 0.10
s 12.494552798 _0_ AGT  --- 11 cbr 512 [0 0 0 0] ------- [0:0 1:0 32 0] [11] 0 0
r 12.494552798 _0_ RTR  --- 11 cbr 512 [0 0 0 0] ------- [0:0 1:0 32 0] [11] 0 0
M 13.00000 0 (155.77, 151.65, 0.00), (155.75, 151.65), 0.01
M 13.00000 1 (601.65, 316.43, 0.00), (601.65, 327.10), 10.66
M 13.00000 2 (755.78, 751.65, 0.00), (755.76, 751.65), 0.01
M 13.00000 3 (1.65, 515.50, 0.00), (1.65, 495.97), 19.53
M 13.00000 4 (5.75, 751.65, 0.00), (5.75, 751.65), 0.00
M 13.00000 5 (751.65, 437.37, 0.00), (751.59, 445.68), 8.32
M 13.00000 6 (6.93, 151.65, 0.00), (6.00, 151.65), 0.94
M 13.00000 7 (794.63, 901.65, 0.00), (777.88, 901.65), 16.74
M 13.00000 8 (493.90, 451.65, 0.00), (477.64, 451.65), 16.26
M 13.00000 9 (755.78, 301.65, 0.00), (755.75, 301.65), 0.02
s 13.686859630 _0_ AGT  --- 12 cbr 512 [0 0 0 0] ------- [0:0 1:0 32 0] [12] 0 0
r 13.686859630 _0_ RTR  --- 12 cbr 512 [0 0 0 0] ------- [0:0 1:0 32 0] [12] 0 0
M 14.00000 0 (155.76, 151.65, 0.00), (155.75, 151.65), 0.00
M 14.00000 1 (601.65, 327.09, 0.00), (601.65, 339.61), 12.52
M 14.00000 2 (755.77, 751.65, 0.00), (755.75, 751.65), 0.00
M 14.00000 3 (1.65, 495.97, 0.00), (1.65, 476.52), 19.45
M 14.00000 4 (5.75, 751.65, 0.00), (5.75, 751.65), 0.00
M 14.00000 5 (751.59, 445.68, 0.00), (750.52, 449.27), 3.82
M 14.00000 6 (6.00, 151.65, 0.00), (5.81, 151.65), 0.19
M 14.00000 7 (777.89, 901.65, 0.00), (764.98, 901.65), 12.90
M 14.00000 8 (477.64, 451.65, 0.00), (465.89, 451.65), 11.76
M 14.00000 9 (755.76, 301.65, 0.00), (755.75, 301.65), 0.00
s 14.000000000 _0_ RTR  --- 0 AODV 48 [0 0 0 0] ------- [0:255 -1:255 30 0] [0x2 1 4 [1 0] [0 10]] (REQUEST)
s 14.000475000 _0_ MAC  --- 0 AODV 106 [0 ffffffff 0 800] ------- [0:255 -1:255 30 0] [0x2 1 4 [1 0] [0 10]] (REQUEST)
r 14.001323499 _6_ MAC  --- 0 AODV 48 [0 ffffffff 0 800] ------- [0:255 -1:255 30 0] [0x2 1 4 [1 0] [0 10]] (REQUEST)
r 14.001348499 _6_ RTR  --- 0 AODV 48 [0 ffffffff 0 800] ------- [0:255 -1:255 30 0] [0x2 1 4 [1 0] [0 10]] (REQUEST)
s 14.003760755 _6_ RTR  --- 0 AODV 48 [0 ffffffff 0 800] ------- [6:255 -1:255 29 0] [0x2 2 4 [1 0] [0 10]] (REQUEST)
s 14.003875755 _6_ MAC  --- 0 AODV 106 [0 ffffffff 6 800] ------- [6:255 -1:255 29 0] [0x2 2 4 [1 0] [0 10]] (REQUEST)
r 14.004724255 _0_ MAC  --- 0 AODV 48 [0 ffffffff 6 800] ------- [6:255 -1:255 29 0] [0x2 2 4 [1 0] [0 10]] (REQUEST)
r 14.004749255 _0_ RTR  --- 0 AODV 48 [0 ffffffff 6 800] ------- [6:255 -1:255 29 0] [0x2 2 4 [1 0] [0 10]] (REQUEST)
M 15.00000 0 (155.76, 151.65, 0.00), (155.75, 151.65), 0.00
M 15.00000 1 (601.65, 339.61, 0.00), (601.65, 354.36), 14.75
M 15.00000 2 (755.77, 751.65, 0.00), (755.75, 751.65), 0.00
M 15.00000 3 (1.65, 476.52, 0.00), (1.65, 456.66), 19.87
M 15.00000 4 (5.75, 751.65, 0.00), (5.75, 751.65), 0.00
M 15.00000 5 (750.52, 449.27, 0.00), (745.83, 451.57), 5.49
M 15.00000 6 (5.81, 151.65, 0.00), (5.77, 151.65), 0.04
M 15.00000 7 (764.99, 901.65, 0.00), (755.95, 901.65), 9.03
M 15.00000 8 (465.89, 451.65, 0.00), (458.63, 451.65), 7.26
M 15.00000 9 (755.76, 301.65, 0.00), (755.75, 301.65), 0.00
s 15.048926911 _0_ AGT  --- 13 cbr 512 [0 0 0 0] ------- [0:0 1:0 32 0] [13] 0 0
r 15.048926911 _0_ RTR  --- 13 cbr 512 [0 0 0 0] ------- [0:0 1:0 32 0] [13] 0 0
M 16.00000 0 (155.76, 151.65, 0.00), (155.75, 151.65), 0.00
M 16.00000 1 (601.65, 354.36, 0.00), (601.65, 370.83), 16.47
M 16.00000 2 (755.77, 751.65, 0.00), (755.75, 751.65), 0.00
M 16.00000 3 (1.65, 456.66, 0.00), (1.65, 437.14), 19.52
M 16.00000 4 (5.75, 751.65, 0.00), (5.75, 751.65), 0.00
M 16.00000 5 (745.83, 451.57, 0.00), (739.01, 451.65), 6.82
M 16.00000 6 (5.77, 151.65, 0.00), (5.76, 151.65), 0.01
M 16.00000 7 (755.96, 901.65, 0.00), (751.28, 900.85), 4.81
M 16.00000 8 (458.63, 451.65, 0.00), (455.81, 451.65), 2.82
M 16.00000 9 (755.76, 301.65, 0.00), (755.75, 301.65), 0.00
s 16.311158804 _0_ AGT  --- 14 cbr 512 [0 0 0 0] ------- [0:0 1:0 32 0] [14] 0 0
r 16.311158804 _0_ RTR  --- 14 cbr 512 [0 0 0 0] ------- [0:0 1:0 32 0] [14] 0 0
M 17.00000 0 (155.76, 151.65, 0.00), (155.75, 151.65), 0.00
M 17.00000 1 (601.65, 370.83, 0.00), (601.65, 389.14), 18.31
M 17.00000 2 (755.77, 751.65, 0.00), (755.75, 751.65), 0.00
M 17.00000 3 (1.65, 437.14, 0.00), (1.65, 417.50), 19.64
M 17.00000 4 (5.75, 751.65, 0.00), (5.75, 751.65), 0.00
M 17.00000 5 (739.01, 451.65, 0.00), (730.48, 451.65), 8.53
M 17.00000 6 (5.76, 151.65, 0.00), (5.75, 151.65), 0.01
M 17.00000 7 (751.28, 900.85, 0.00), (748.35, 895.03), 6.92
M 17.00000 8 (455.81, 451.65, 0.00), (455.77, 451.65), 0.04
M 17.00000 9 (755.76, 301.65, 0.00), (755.75, 301.65), 0.00
s 17.716104273 _0_ AGT  --- 15 cbr 512 [0 0 0 0] ------- [0:0 1:0 32 0] [15] 0 0
r 17.716104273 _0_ RTR  --- 15 cbr 512 [0 0 0 0] ------- [0:0 1:0 32 0] [15] 0 0
M 18.00000 0 (155.76, 151.65, 0.00), (155.75, 151.65), 0.00
M 18.00000 1 (601.65, 389.14, 0.00), (601.65, 407.91), 18.77
M 18.00000 2 (755.77, 751.65, 0.00), (755.75, 751.65), 0.00
M 18.00000 3 (1.65, 417.50, 0.00), (1.65, 398.21), 19.29
M 18.00000 4 (5.75, 751.65, 0.00), (5.75, 751.65), 0.00
M 18.00000 5 (730.48, 451.65, 0.00), (719.37, 451.65), 11.11
M 18.00000 6 (5.75, 151.65, 0.00), (5.75, 151.65), 0.00
M 18.00000 7 (748.35, 895.03, 0.00), (748.35, 886.79), 8.25
M 18.00000 8 (455.77, 451.65, 0.00), (455.76, 451.65), 0.01
M 18.00000 9 (755.76, 301.65, 0.00), (755.75, 301.65), 0.00
s 18.621623350 _0_ AGT  --- 16 cbr 512 [0 0 0 0] ------- [0:0 1:0 32 0] [16] 0 0
r 18.621623350 _0_ RTR  --- 16 cbr 512 [0 0 0 0] ------- [0:0 1:0 32 0] [16] 0 0
M 19.00000 0 (155.76, 151.65, 0.00), (155.75, 151.65), 0.00
M 19.00000 1 (601.65, 407.91, 0.00), (601.65, 427.30), 19.39
M 19.00000 2 (755.77, 751.65, 0.00), (755.75, 751.65), 0.00
M 19.00000 3 (1.65, 398.21, 0.00), (1.65, 378.65), 19.56
M 19.00000 4 (5.75, 751.65, 0.00), (5.75, 751.65), 0.00
M 19.00000 5 (719.37, 451.65, 0.00), (705.65, 451.65), 13.71
M 19.00000 6 (5.75, 151.65, 0.00), (5.75, 151.65), 0.00
M 19.00000 7 (748.35, 886.79, 0.00), (748.35, 876.80), 9.99
M 19.00000 8 (455.76, 451.65, 0.00), (455.75, 451.65), 0.00
M 19.00000 9 (755.76, 301.65, 0.00), (755.75, 301.65), 0.00
s 19.230821822 _0_ AGT  --- 17 cbr 512 [0 0 0 0] ------- [0:0 1:0 32 0] [17] 0 0
r 19.230821822 _0_ RTR  --- 17 cbr 512 [0 0 0 0] ------- [0:0 1:0 32 0] [17] 0 0
M 20.00000 0 (155.76, 151.65, 0.00), (155.75, 151.65), 0.00
M 20.00000 1 (601.65, 427.30, 0.00), (601.65, 446.20), 18.89
M 20.00000 2 (755.77, 751.65, 0.00), (755.75, 751.65), 0.00
M 20.00000 3 (1.65, 378.65, 0.00), (1.65, 359.72), 18.93
M 20.00000 4 (5.75, 751.65, 0.00), (5.75, 751.65), 0.00
M 20.00000 5 (705.66, 451.65, 0.00), (689.85, 451.65), 15.80
M 20.00000 6 (5.75, 151.65, 0.00), (5.75, 151.65), 0.00
M 20.00000 7 (748.35, 876.80, 0.00), (748.35, 865.50), 11.29
M 20.00000 8 (455.76, 451.65, 0.00), (455.75, 451.65), 0.00
M 20.00000 9 (755.76, 301.65, 0.00), (755.75, 301.65), 0.00
s 20.135029350 _0_ AGT  --- 18 cbr 512 [0 0 0 0] ------- [0:0 1:0 32 0] [18] 0 0
r 20.135029350 _0_ RTR  --- 18 cbr 512 [0 0 0 0] ------- [0:0 1:0 32 0] [18] 0 0
s 20.822394592 _0_ AGT  --- 19 cbr 512 [0 0 0 0] ------- [0:0 1:0 32 0] [19] 0 0
r 20.822394592 _0_ RTR  --- 19 cbr 512 [0 0 0 0] ------- [0:0 1:0 32 0] [19] 0 0
M 21.00000 0 (155.76, 151.65, 0.00), (155.75, 151.65), 0.00
M 21.00000 1 (601.65, 446.19, 0.00), (601.65, 465.77), 19.58
M 21.00000 2 (755.77, 751.65, 0.00), (755.75, 751.65), 0.00
M 21.00000 3 (1.65, 359.72, 0.00), (1.65, 339.99), 19.73
M 21.00000 4 (5.75, 751.65, 0.00), (5.75, 751.65), 0.00
M 21.00000 5 (689.86, 451.65, 0.00), (671.65, 451.65), 18.20
M 21.00000 6 (5.75, 151.65, 0.00), (5.75, 151.65), 0.00
M 21.00000 7 (748.35, 865.51, 0.00), (748.35, 852.19), 13.31
M 21.00000 8 (455.76, 451.65, 0.00), (455.75, 451.65), 0.00
M 21.00000 9 (755.76, 301.65, 0.00), (755.75, 301.65), 0.00
D 21.500000000 _0_ RTR NRTE 0 cbr 532 [0 0 0 0] ------- [0:0 1:0 30 0] [0] 0 0
D 21.500000000 _0_ RTR NRTE 1 cbr 532 [0 0 0 0] ------- [0:0 1:0 30 0] [1] 0 0
D 21.500000000 _0_ RTR NRTE 2 cbr 532 [0 0 0 0] ------- [0:0 1:0 30 0] [2] 0 0
D 21.500000000 _0_ RTR NRTE 3 cbr 532 [0 0 0 0] ------- [0:0 1:0 30 0] [3] 0 0
D 21.500000000 _0_ RTR NRTE 4 cbr 532 [0 0 0 0] ------- [0:0 1:0 30 0] [4] 0 0
D 21.500000000 _0_ RTR NRTE 5 cbr 532 [0 0 0 0] ------- [0:0 1:0 30 0] [5] 0 0
D 21.500000000 _0_ RTR NRTE 6 cbr 532 [0 0 0 0] ------- [0:0 1:0 30 0] [6] 0 0
D 21.500000000 _0_ RTR NRTE 7 cbr 532 [0 0 0 0] ------- [0:0 1:0 30 0] [7] 0 0
D 21.500000000 _0_ RTR NRTE 8 cbr 532 [0 0 0 0] ------- [0:0 1:0 30 0] [8] 0 0
D 21.500000000 _0_ RTR NRTE 9 cbr 532 [0 0 0 0] ------- [0:0 1:0 30 0] [9] 0 0
D 21.500000000 _0_ RTR NRTE 10 cbr 532 [0 0 0 0] ------- [0:0 1:0 30 0] [10] 0 0
D 21.500000000 _0_ RTR NRTE 11 cbr 532 [0 0 0 0] ------- [0:0 1:0 30 0] [11] 0 0
D 21.500000000 _0_ RTR NRTE 12 cbr 532 [0 0 0 0] ------- [0:0 1:0 30 0] [12] 0 0
D 21.500000000 _0_ RTR NRTE 13 cbr 532 [0 0 0 0] ------- [0:0 1:0 30 0] [13] 0 0
D 21.500000000 _0_ RTR NRTE 14 cbr 532 [0 0 0 0] ------- [0:0 1:0 30 0] [14] 0 0
D 21.500000000 _0_ RTR NRTE 15 cbr 532 [0 0 0 0] ------- [0:0 1:0 30 0] [15] 0 0
D 21.500000000 _0_ RTR NRTE 16 cbr 532 [0 0 0 0] ------- [0:0 1:0 30 0] [16] 0 0
D 21.500000000 _0_ RTR NRTE 17 cbr 532 [0 0 0 0] ------- [0:0 1:0 30 0] [17] 0 0
D 21.500000000 _0_ RTR NRTE 18 cbr 532 [0 0 0 0] ------- [0:0 1:0 30 0] [18] 0 0
D 21.500000000 _0_ RTR NRTE 19 cbr 532 [0 0 0 0] ------- [0:0 1:0 30 0] [19] 0 0
M 22.00000 0 (155.76, 151.65, 0.00), (155.75, 151.65), 0.00
M 22.00000 1 (601.65, 465.77, 0.00), (601.65, 485.65), 19.87
M 22.00000 2 (755.77, 751.65, 0.00), (755.75, 751.65), 0.00
M 22.00000 3 (1.65, 339.99, 0.00), (1.65, 323.30), 16.69
M 22.00000 4 (5.75, 751.65, 0.00), (5.75, 751.65), 0.00
M 22.00000 5 (671.66, 451.65, 0.00), (652.68, 451.65), 18.97
M 22.00000 6 (5.75, 151.65, 0.00), (5.75, 151.65), 0.00
M 22.00000 7 (748.35, 852.20, 0.00), (748.35, 836.43), 15.76
M 22.00000 8 (455.76, 451.65, 0.00), (455.75, 451.65), 0.00
M 22.00000 9 (755.76, 301.65, 0.00), (755.75, 301.65), 0.00
s 22.209838138 _0_ AGT  --- 20 cbr 512 [0 0 0 0] ------- [0:0 1:0 32 0] [20] 0 0
r 22.209838138 _0_ RTR  --- 20 cbr 512 [0 0 0 0] ------- [0:0 1:0 32 0] [20] 0 0
M 23.00000 0 (155.76, 151.65, 0.00), (155.75, 151.65), 0.00
M 23.00000 1 (601.65, 485.64, 0.00), (601.65, 505.34), 19.69
M 23.00000 2 (755.77, 751.65, 0.00), (755.75, 751.65), 0.00
M 23.00000 3 (1.65, 323.30, 0.00), (1.65, 311.12), 12.19
M 23.00000 4 (5.75, 751.65, 0.00), (5.75, 751.65), 0.00
M 23.00000 5 (652.69, 451.65, 0.00), (634.90, 451.65), 17.78
M 23.00000 6 (5.75, 151.65, 0.00), (5.75, 151.65), 0.00
M 23.00000 7 (748.35, 836.44, 0.00), (748.35, 818.31), 18.12
M 23.00000 8 (455.76, 451.65, 0.00), (455.75, 451.65), 0.00
M 23.00000 9 (755.76, 301.65, 0.00), (755.75, 301.65), 0.00
s 23.656103091 _0_ AGT  --- 21 cbr 512 [0 0 0 0] ------- [0:0 1:0 32 0] [21] 0 0
r 23.656103091 _0_ RTR  --- 21 cbr 512 [0 0 0 0] ------- [0:0 1:0 32 0] [21] 0 0
M 24.00000 0 (155.76, 151.65, 0.00), (155.75, 151.65), 0.00
M 24.00000 1 (601.65, 505.33, 0.00), (601.65, 524.36), 19.03
M 24.00000 2 (755.77, 751.65, 0.00), (755.75, 751.65), 0.00
M 24.00000 3 (1.65, 311.12, 0.00), (1.43, 303.22), 7.91
M 24.00000 4 (5.75, 751.65, 0.00), (5.75, 751.65), 0.00
M 24.00000 5 (634.91, 451.65, 0.00), (621.60, 451.65), 13.30
M 24.00000 6 (5.75, 151.65, 0.00), (5.75, 151.65), 0.00
M 24.00000 7 (748.35, 818.32, 0.00), (748.35, 798.36), 19.95
M 24.00000 8 (455.76, 451.65, 0.00), (455.75, 451.65), 0.00
M 24.00000 9 (755.76, 301.65, 0.00), (755.75, 301.65), 0.00
M 25.00000 0 (155.76, 151.65, 0.00), (155.75, 151.65), 0.00
M 25.00000 1 (601.65, 524.36, 0.00), (601.65, 543.33), 18.97
M 25.00000 2 (755.77, 751.65, 0.00), (755.75, 751.65), 0.00
M 25.00000 3 (1.43, 303.22, 0.00), (5.53, 298.35), 9.55
M 25.00000 4 (5.75, 751.65, 0.00), (5.75, 751.65), 0.00
M 25.00000 5 (621.61, 451.65, 0.00), (611.93, 451.65), 9.67
M 25.00000 6 (5.75, 151.65, 0.00), (5.75, 151.65), 0.00
M 25.00000 7 (748.35, 798.37, 0.00), (748.35, 778.92), 19.44
M 25.00000 8 (455.76, 451.65, 0.00), (455.75, 451.65), 0.00
M 25.00000 9 (755.76, 301.65, 0.00), (755.75, 301.65), 0.00
s 25.047450913 _0_ AGT  --- 22 cbr 512 [0 0 0 0] ------- [0:0 1:0 32 0] [22] 0 0
r 25.047450913 _0_ RTR  --- 22 cbr 512 [0 0 0 0] ------- [0:0 1:0 32 0] [22] 0 0
s 25.659482229 _0_ AGT  --- 23 cbr 512 [0 0 0 0] ------- [0:0 1:0 32 0] [23] 0 0
r 25.659482229 _0_ RTR  --- 23 cbr 512 [0 0 0 0] ------- [0:0 1:0 32 0] [23] 0 0
M 26.00000 0 (155.76, 151.65, 0.00), (155.75, 151.65), 0.00
M 26.00000 1 (601.65, 543.33, 0.00), (601.65, 563.03), 19.70
M 26.00000 2 (755.77, 751.65, 0.00), (755.75, 751.65), 0.00
M 26.00000 3 (5.53, 298.35, 0.00), (16.97, 298.35), 11.44
M 26.00000 4 (5.75, 751.65, 0.00), (5.75, 751.65), 0.00
M 26.00000 5 (611.94, 451.65, 0.00), (606.60, 451.65), 5.32
M 26.00000 6 (5.75, 151.65, 0.00), (5.75, 151.65), 0.00
M 26.00000 7 (748.35, 778.93, 0.00), (748.35, 759.67), 19.25
M 26.00000 8 (455.76, 451.65, 0.00), (455.75, 451.65), 0.00
M 26.00000 9 (755.76, 301.65, 0.00), (755.75, 301.65), 0.00
s 26.217884856 _0_ AGT  --- 24 cbr 512 [0 0 0 0] ------- [0:0 1:0 32 0] [24] 0 0
r 26.217884856 _0_ RTR  --- 24 cbr 512 [0 0 0 0] ------- [0:0 1:0 32 0] [24] 0 0
s 26.728693194 _0_ AGT  --- 25 cbr 512 [0 0 0 0] ------- [0:0 1:0 32 0] [25] 0 0
r 26.728693194 _0_ RTR  --- 25 cbr 512 [0 0 0 0] ------- [0:0 1:0 32 0] [25] 0 0
M 27.00000 0 (155.76, 151.65, 0.00), (155.75, 151.65), 0.00
M 27.00000 1 (601.65, 563.03, 0.00), (601.65, 578.23), 15.20
M 27.00000 2 (755.77, 751.65, 0.00), (755.75, 751.65), 0.00
M 27.00000 3 (16.97, 298.35, 0.00), (30.62, 298.35), 13.65
M 27.00000 4 (5.75, 751.65, 0.00), (5.75, 751.65), 0.00
M 27.00000 5 (606.62, 451.65, 0.00), (605.78, 451.65), 0.82
M 27.00000 6 (5.75, 151.65, 0.00), (5.75, 151.65), 0.00
M 27.00000 7 (748.35, 759.68, 0.00), (748.35, 744.92), 14.75
M 27.00000 8 (455.76, 451.65, 0.00), (455.75, 451.65), 0.00
M 27.00000 9 (755.76, 301.65, 0.00), (755.75, 301.65), 0.00
s 27.823720582 _0_ AGT  --- 26 cbr 512 [0 0 0 0] ------- [0:0 1:0 32 0] [26] 0 0
r 27.823720582 _0_ RTR  --- 26 cbr 512 [0 0 0 0] ------- [0:0 1:0 32 0] [26] 0 0
M 28.00000 0 (155.76, 151.65, 0.00), (155.75, 151.65), 0.00
M 28.00000 1 (601.65, 578.23, 0.00), (601.65, 588.93), 10.70
M 28.00000 2 (755.77, 751.65, 0.00), (755.75, 751.65), 0.00
M 28.00000 3 (30.62, 298.35, 0.00), (46.81, 298.35), 16.19
M 28.00000 4 (5.75, 751.65, 0.00), (5.75, 751.65), 0.00
M 28.00000 5 (605.80, 451.65, 0.00), (605.75, 451.65), 0.03
M 28.00000 6 (5.75, 151.65, 0.00), (5.75, 151.65), 0.00
M 28.00000 7 (748.35, 744.93, 0.00), (748.35, 727.61), 17.31
M 28.00000 8 (455.76, 451.65, 0.00), (455.75, 451.65), 0.00
M 28.00000 9 (755.76, 301.65, 0.00), (755.75, 301.65), 0.00
s 28.659383341 _0_ AGT  --- 27 cbr 512 [0 0 0 0] ------- [0:0 1:0 32 0] [27] 0 0
r 28.659383341 _0_ RTR  --- 27 cbr 512 [0 0 0 0] ------- [0:0 1:0 32 0] [27] 0 0
M 29.00000 0 (155.76, 151.65, 0.00), (155.75, 151.65), 0.00
M 29.00000 1 (601.65, 588.93, 0.00), (601.65, 595.14), 6.20
M 29.00000 2 (755.77, 751.65, 0.00), (755.75, 751.65), 0.00
M 29.00000 3 (46.81, 298.35, 0.00), (64.83, 298.35), 18.03
M 29.00000 4 (5.75, 751.65, 0.00), (5.75, 751.65), 0.00
M 29.00000 5 (605.77, 451.65, 0.00), (605.75, 451.65), 0.00
M 29.00000 6 (5.75, 151.65, 0.00), (5.75, 151.65), 0.00
M 29.00000 7 (748.35, 727.62, 0.00), (748.35, 708.37), 19.25
M 29.00000 8 (455.76, 451.65, 0.00), (455.75, 451.65), 0.00
M 29.00000 9 (755.76, 301.65, 0.00), (755.75, 301.65), 0.00
s 29.282486836 _0_ AGT  --- 28 cbr 512 [0 0 0 0] ------- [0:0 1:0 32 0] [28] 0 0
r 29.282486836 _0_ RTR  --- 28 cbr 512 [0 0 0 0] ------- [0:0 1:0 32 0] [28] 0 0
M 30.00000 0 (155.76, 151.65, 0.00), (155.75, 151.65), 0.00
M 30.00000 1 (601.65, 595.13, 0.00), (601.65, 603.55), 8.42
M 30.00000 2 (755.77, 751.65, 0.00), (755.75, 751.65), 0.00
M 30.00000 3 (64.83, 298.35, 0.00), (84.63, 298.35), 19.80
M 30.00000 4 (5.75, 751.65, 0.00), (5.75, 751.65), 0.00
M 30.00000 5 (605.77, 451.65, 0.00), (605.75, 451.65), 0.00
M 30.00000 6 (5.75, 151.65, 0.00), (5.75, 151.65), 0.00
M 30.00000 7 (748.35, 708.37, 0.00), (748.35, 688.65), 19.72
M 30.00000 8 (455.76, 451.65, 0.00), (455.75, 451.65), 0.00
M 30.00000 9 (755.76, 301.65, 0.00), (755.75, 301.65), 0.00
s 30.451110730 _0_ AGT  --- 29 cbr 512 [0 0 0 0] ------- [0:0 1:0 32 0] [29] 0 0
r 30.451110730 _0_ RTR  --- 29 cbr 512 [0 0 0 0] ------- [0:0 1:0 32 0] [29] 0 0
M 31.00000 0 (155.76, 151.65, 0.00), (155.75, 151.65), 0.00
M 31.00000 1 (601.65, 603.55, 0.00), (601.65, 614.56), 11.00
M 31.00000 2 (755.77, 751.65, 0.00), (755.75, 751.65), 0.00
M 31.00000 3 (84.63, 298.35, 0.00), (103.44, 298.35), 18.81
M 31.00000 4 (5.75, 751.65, 0.00), (5.75, 751.65), 0.00
M 31.00000 5 (605.77, 451.65, 0.00), (605.75, 451.65), 0.00
M 31.00000 6 (5.75, 151.65, 0.00), (5.75, 151.65), 0.00
M 31.00000 7 (748.35, 688.65, 0.00), (748.35, 669.61), 19.04
M 31.00000 8 (455.76, 451.65, 0.00), (455.75, 451.65), 0.00
M 31.00000 9 (755.76, 301.65, 0.00), (755.75, 301.65), 0.00
s 31.208104469 _0_ AGT  --- 30 cbr 512 [0 0 0 0] ------- [0:0 1:0 32 0] [30] 0 0
r 31.208104469 _0_ RTR  --- 30 cbr 512 [0 0 0 0] ------- [0:0 1:0 32 0] [30] 0 0
s 31.500000000 _0_ RTR  --- 0 AODV 48 [0 0 0 0] ------- [0:255 -1:255 30 0] [0x2 1 5 [1 0] [0 12]] (REQUEST)
s 31.500075000 _0_ MAC  --- 0 AODV 106 [0 ffffffff 0 800] ------- [0:255 -1:255 30 0] [0x2 1 5 [1 0] [0 12]] (REQUEST)
r 31.500923500 _6_ MAC  --- 0 AODV 48 [0 ffffffff 0 800] ------- [0:255 -1:255 30 0] [0x2 1 5 [1 0] [0 12]] (REQUEST)
r 31.500923531 _3_ MAC  --- 0 AODV 48 [0 ffffffff 0 800] ------- [0:255 -1:255 30 0] [0x2 1 5 [1 0] [0 12]] (REQUEST)
r 31.500948500 _6_ RTR  --- 0 AODV 48 [0 ffffffff 0 800] ------- [0:255 -1:255 30 0] [0x2 1 5 [1 0] [0 12]] (REQUEST)
r 31.500948531 _3_ RTR  --- 0 AODV 48 [0 ffffffff 0 800] ------- [0:255 -1:255 30 0] [0x2 1 5 [1 0] [0 12]] (REQUEST)
s 31.503566742 _6_ RTR  --- 0 AODV 48 [0 ffffffff 0 800] ------- [6:255 -1:255 29 0] [0x2 2 5 [1 0] [0 12]] (REQUEST)
s 31.503861742 _6_ MAC  --- 0 AODV 106 [0 ffffffff 6 800] ------- [6:255 -1:255 29 0] [0x2 2 5 [1 0] [0 12]] (REQUEST)
r 31.504710242 _0_ MAC  --- 0 AODV 48 [0 ffffffff 6 800] ------- [6:255 -1:255 29 0] [0x2 2 5 [1 0] [0 12]] (REQUEST)
r 31.504710312 _3_ MAC  --- 0 AODV 48 [0 ffffffff 6 800] ------- [6:255 -1:255 29 0] [0x2 2 5 [1 0] [0 12]] (REQUEST)
r 31.504735242 _0_ RTR  --- 0 AODV 48 [0 ffffffff 6 800] ------- [6:255 -1:255 29 0] [0x2 2 5 [1 0] [0 12]] (REQUEST)
r 31.504735312 _3_ RTR  --- 0 AODV 48 [0 ffffffff 6 800] ------- [6:255 -1:255 29 0] [0x2 2 5 [1 0] [0 12]] (REQUEST)
s 31.506496927 _3_ RTR  --- 0 AODV 48 [0 ffffffff 0 800] ------- [3:255 -1:255 29 0] [0x2 2 5 [1 0] [0 12]] (REQUEST)
s 31.506871927 _3_ MAC  --- 0 AODV 106 [0 ffffffff 3 800] ------- [3:255 -1:255 29 0] [0x2 2 5 [1 0] [0 12]] (REQUEST)
r 31.507720458 _0_ MAC  --- 0 AODV 48 [0 ffffffff 3 800] ------- [3:255 -1:255 29 0] [0x2 2 5 [1 0] [0 12]] (REQUEST)
r 31.507720498 _6_ MAC  --- 0 AODV 48 [0 ffffffff 3 800] ------- [3:255 -1:255 29 0] [0x2 2 5 [1 0] [0 12]] (REQUEST)
r 31.507745458 _0_ RTR  --- 0 AODV 48 [0 ffffffff 3 800] ------- [3:255 -1:255 29 0] [0x2 2 5 [1 0] [0 12]] (REQUEST)
r 31.507745498 _6_ RTR  --- 0 AODV 48 [0 ffffffff 3 800] ------- [3:255 -1:255 29 0] [0x2 2 5 [1 0] [0 12]] (REQUEST)
M 32.00000 0 (155.76, 151.65, 0.00), (155.75, 151.65), 0.00
M 32.00000 1 (601.65, 614.55, 0.00), (601.65, 627.92), 13.37
M 32.00000 2 (755.77, 751.65, 0.00), (755.75, 751.65), 0.00
M 32.00000 3 (103.44, 298.35, 0.00), (119.78, 298.35), 16.34
M 32.00000 4 (5.75, 751.65, 0.00), (5.75, 751.65), 0.00
M 32.00000 5 (605.77, 451.65, 0.00), (605.75, 451.65), 0.00
M 32.00000 6 (5.75, 151.65, 0.00), (5.75, 151.65), 0.00
M 32.00000 7 (748.35, 669.61, 0.00), (748.35, 650.13), 19.48
M 32.00000 8 (455.76, 451.65, 0.00), (455.75, 451.65), 0.00
M 32.00000 9 (755.76, 301.65, 0.00), (755.75, 301.65), 0.00
s 32.406777695 _0_ AGT  --- 31 cbr 512 [0 0 0 0] ------- [0:0 1:0 32 0] [31] 0 0
r 32.406777695 _0_ RTR  --- 31 cbr 512 [0 0 0 0] ------- [0:0 1:0 32 0] [31] 0 0
M 33.00000 0 (155.76, 151.65, 0.00), (155.75, 151.65), 0.00
M 33.00000 1 (601.65, 627.92, 0.00), (601.65, 642.72), 14.79
M 33.00000 2 (755.77, 751.65, 0.00), (755.75, 751.65), 0.00
M 33.00000 3 (119.78, 298.35, 0.00), (131.91, 298.35), 12.13
M 33.00000 4 (5.75, 751.65, 0.00), (5.75, 751.65), 0.00
M 33.00000 5 (605.77, 451.65, 0.00), (605.75, 451.65), 0.00
M 33.00000 6 (5.75, 151.65, 0.00), (5.75, 151.65), 0.00
M 33.00000 7 (748.35, 650.13, 0.00), (748.35, 632.68), 17.45
M 33.00000 8 (455.76, 451.65, 0.00), (455.75, 451.65), 0.00