M 0.00000 0 (1220.06, 1351.65, 0.00), (1220.06, 1351.65), 9.60
M 1.00000 0 (1220.06, 1351.65, 0.00), (1211.72, 1351.65), 8.34
M 1.00000 1 (1338.86, 451.65, 0.00), (1338.86, 451.65), 20.00
M 2.00000 0 (1211.72, 1351.65, 0.00), (1207.12, 1351.65), 4.60
M 2.00000 1 (1338.86, 451.65, 0.00), (1319.63, 451.65), 19.23
M 2.00000 2 (289.12, 1351.65, 0.00), (289.12, 1351.65), 20.00
s 2.556838879 _8_ AGT  --- 0 cbr 512 [0 0 0 0] ------- [8:0 39:0 32 0] [0] 0 0
r 2.556838879 _8_ RTR  --- 0 cbr 512 [0 0 0 0] ------- [8:0 39:0 32 0] [0] 0 0
s 2.556838879 _8_ RTR  --- 0 AODV 48 [0 0 0 0] ------- [8:255 -1:255 30 0] [0x2 1 1 [39 0] [8 4]] (REQUEST)
s 2.556953879 _8_ MAC  --- 0 AODV 106 [0 ffffffff 8 800] ------- [8:255 -1:255 30 0] [0x2 1 1 [39 0] [8 4]] (REQUEST)
r 2.557802423 _25_ MAC  --- 0 AODV 48 [0 ffffffff 8 800] ------- [8:255 -1:255 30 0] [0x2 1 1 [39 0] [8 4]] (REQUEST)
r 2.557827423 _25_ RTR  --- 0 AODV 48 [0 ffffffff 8 800] ------- [8:255 -1:255 30 0] [0x2 1 1 [39 0] [8 4]] (REQUEST)
s 2.558708650 _25_ RTR  --- 0 AODV 48 [0 ffffffff 8 800] ------- [25:255 -1:255 29 0] [0x2 2 1 [39 0] [8 4]] (REQUEST)
s 2.559103650 _25_ MAC  --- 0 AODV 106 [0 ffffffff 19 800] ------- [25:255 -1:255 29 0] [0x2 2 1 [39 0] [8 4]] (REQUEST)
r 2.559952083 _17_ MAC  --- 0 AODV 48 [0 ffffffff 19 800] ------- [25:255 -1:255 29 0] [0x2 2 1 [39 0] [8 4]] (REQUEST)
r 2.559952195 _8_ MAC  --- 0 AODV 48 [0 ffffffff 19 800] ------- [25:255 -1:255 29 0] [0x2 2 1 [39 0] [8 4]] (REQUEST)
r 2.559952288 _43_ MAC  --- 0 AODV 48 [0 ffffffff 19 800] ------- [25:255 -1:255 29 0] [0x2 2 1 [39 0] [8 4]] (REQUEST)
r 2.559952299 _31_ MAC  --- 0 AODV 48 [0 ffffffff 19 800] ------- [25:255 -1:255 29 0] [0x2 2 1 [39 0] [8 4]] (REQUEST)
r 2.559977083 _17_ RTR  --- 0 AODV 48 [0 ffffffff 19 800] ------- [25:255 -1:255 29 0] [0x2 2 1 [39 0] [8 4]] (REQUEST)
r 2.559977195 _8_ RTR  --- 0 AODV 48 [0 ffffffff 19 800] ------- [25:255 -1:255 29 0] [0x2 2 1 [39 0] [8 4]] (REQUEST)
r 2.559977288 _43_ RTR  --- 0 AODV 48 [0 ffffffff 19 800] ------- [25:255 -1:255 29 0] [0x2 2 1 [39 0] [8 4]] (REQUEST)
r 2.559977299 _31_ RTR  --- 0 AODV 48 [0 ffffffff 19 800] ------- [25:255 -1:255 29 0] [0x2 2 1 [39 0] [8 4]] (REQUEST)
s 2.562323316 _31_ RTR  --- 0 AODV 48 [0 ffffffff 19 800] ------- [31:255 -1:255 28 0] [0x2 3 1 [39 0] [8 4]] (REQUEST)
s 2.562758316 _31_ MAC  --- 0 AODV 106 [0 ffffffff 1f 800] ------- [31:255 -1:255 28 0] [0x2 3 1 [39 0] [8 4]] (REQUEST)
s 2.563106701 _17_ RTR  --- 0 AODV 48 [0 ffffffff 19 800] ------- [17:255 -1:255 28 0] [0x2 3 1 [39 0] [8 4]] (REQUEST)
r 2.563606522 _43_ MAC  --- 0 AODV 48 [0 ffffffff 1f 800] ------- [31:255 -1:255 28 0] [0x2 3 1 [39 0] [8 4]] (REQUEST)
r 2.563606780 _28_ MAC  --- 0 AODV 48 [0 ffffffff 1f 800] ------- [31:255 -1:255 28 0] [0x2 3 1 [39 0] [8 4]] (REQUEST)
r 2.563606869 _20_ MAC  --- 0 AODV 48 [0 ffffffff 1f 800] ------- [31:255 -1:255 28 0] [0x2 3 1 [39 0] [8 4]] (REQUEST)
r 2.563606902 _17_ MAC  --- 0 AODV 48 [0 ffffffff 1f 800] ------- [31:255 -1:255 28 0] [0x2 3 1 [39 0] [8 4]] (REQUEST)
r 2.563606965 _25_ MAC  --- 0 AODV 48 [0 ffffffff 1f 800] ------- [31:255 -1:255 28 0] [0x2 3 1 [39 0] [8 4]] (REQUEST)
r 2.563631522 _43_ RTR  --- 0 AODV 48 [0 ffffffff 1f 800] ------- [31:255 -1:255 28 0] [0x2 3 1 [39 0] [8 4]] (REQUEST)
r 2.563631780 _28_ RTR  --- 0 AODV 48 [0 ffffffff 1f 800] ------- [31:255 -1:255 28 0] [0x2 3 1 [39 0] [8 4]] (REQUEST)
r 2.563631869 _20_ RTR  --- 0 AODV 48 [0 ffffffff 1f 800] ------- [31:255 -1:255 28 0] [0x2 3 1 [39 0] [8 4]] (REQUEST)
r 2.563631902 _17_ RTR  --- 0 AODV 48 [0 ffffffff 1f 800] ------- [31:255 -1:255 28 0] [0x2 3 1 [39 0] [8 4]] (REQUEST)
r 2.563631965 _25_ RTR  --- 0 AODV 48 [0 ffffffff 1f 800] ------- [31:255 -1:255 28 0] [0x2 3 1 [39 0] [8 4]] (REQUEST)
s 2.563916902 _17_ MAC  --- 0 AODV 106 [0 ffffffff 11 800] ------- [17:255 -1:255 28 0] [0x2 3 1 [39 0] [8 4]] (REQUEST)
s 2.564059815 _20_ RTR  --- 0 AODV 48 [0 ffffffff 1f 800] ------- [20:255 -1:255 27 0] [0x2 4 1 [39 0] [8 4]] (REQUEST)
r 2.564765335 _25_ MAC  --- 0 AODV 48 [0 ffffffff 11 800] ------- [17:255 -1:255 28 0] [0x2 3 1 [39 0] [8 4]] (REQUEST)
r 2.564765488 _31_ MAC  --- 0 AODV 48 [0 ffffffff 11 800] ------- [17:255 -1:255 28 0] [0x2 3 1 [39 0] [8 4]] (REQUEST)
r 2.564765518 _6_ MAC  --- 0 AODV 48 [0 ffffffff 11 800] ------- [17:255 -1:255 28 0] [0x2 3 1 [39 0] [8 4]] (REQUEST)
r 2.564765578 _20_ MAC  --- 0 AODV 48 [0 ffffffff 11 800] ------- [17:255 -1:255 28 0] [0x2 3 1 [39 0] [8 4]] (REQUEST)
r 2.564765610 _43_ MAC  --- 0 AODV 48 [0 ffffffff 11 800] ------- [17:255 -1:255 28 0] [0x2 3 1 [39 0] [8 4]] (REQUEST)
r 2.564765629 _37_ MAC  --- 0 AODV 48 [0 ffffffff 11 800] ------- [17:255 -1:255 28 0] [0x2 3 1 [39 0] [8 4]] (REQUEST)
r 2.564790335 _25_ RTR  --- 0 AODV 48 [0 ffffffff 11 800] ------- [17:255 -1:255 28 0] [0x2 3 1 [39 0] [8 4]] (REQUEST)
r 2.564790488 _31_ RTR  --- 0 AODV 48 [0 ffffffff 11 800] ------- [17:255 -1:255 28 0] [0x2 3 1 [39 0] [8 4]] (REQUEST)
r 2.564790518 _6_ RTR  --- 0 AODV 48 [0 ffffffff 11 800] ------- [17:255 -1:255 28 0] [0x2 3 1 [39 0] [8 4]] (REQUEST)
r 2.564790578 _20_ RTR  --- 0 AODV 48 [0 ffffffff 11 800] ------- [17:255 -1:255 28 0] [0x2 3 1 [39 0] [8 4]] (REQUEST)
r 2.564790610 _43_ RTR  --- 0 AODV 48 [0 ffffffff 11 800] ------- [17:255 -1:255 28 0] [0x2 3 1 [39 0] [8 4]] (REQUEST)
r 2.564790629 _37_ RTR  --- 0 AODV 48 [0 ffffffff 11 800] ------- [17:255 -1:255 28 0] [0x2 3 1 [39 0] [8 4]] (REQUEST)
s 2.564975578 _20_ MAC  --- 0 AODV 106 [0 ffffffff 14 800] ------- [20:255 -1:255 27 0] [0x2 4 1 [39 0] [8 4]] (REQUEST)
s 2.565273234 _28_ RTR  --- 0 AODV 48 [0 ffffffff 1f 800] ------- [28:255 -1:255 27 0] [0x2 4 1 [39 0] [8 4]] (REQUEST)
r 2.565824130 _31_ MAC  --- 0 AODV 48 [0 ffffffff 14 800] ------- [20:255 -1:255 27 0] [0x2 4 1 [39 0] [8 4]] (REQUEST)
r 2.565824193 _11_ MAC  --- 0 AODV 48 [0 ffffffff 14 800] ------- [20:255 -1:255 27 0] [0x2 4 1 [39 0] [8 4]] (REQUEST)
r 2.565824203 _37_ MAC  --- 0 AODV 48 [0 ffffffff 14 800] ------- [20:255 -1:255 27 0] [0x2 4 1 [39 0] [8 4]] (REQUEST)
r 2.565824213 _19_ MAC  --- 0 AODV 48 [0 ffffffff 14 800] ------- [20:255 -1:255 27 0] [0x2 4 1 [39 0] [8 4]] (REQUEST)
r 2.565824230 _28_ MAC  --- 0 AODV 48 [0 ffffffff 14 800] ------- [20:255 -1:255 27 0] [0x2 4 1 [39 0] [8 4]] (REQUEST)
r 2.565824244 _6_ MAC  --- 0 AODV 48 [0 ffffffff 14 800] ------- [20:255 -1:255 27 0] [0x2 4 1 [39 0] [8 4]] (REQUEST)
r 2.565824253 _17_ MAC  --- 0 AODV 48 [0 ffffffff 14 800] ------- [20:255 -1:255 27 0] [0x2 4 1 [39 0] [8 4]] (REQUEST)
r 2.565824333 _43_ MAC  --- 0 AODV 48 [0 ffffffff 14 800] ------- [20:255 -1:255 27 0] [0x2 4 1 [39 0] [8 4]] (REQUEST)
r 2.565849130 _31_ RTR  --- 0 AODV 48 [0 ffffffff 14 800] ------- [20:255 -1:255 27 0] [0x2 4 1 [39 0] [8 4]] (REQUEST)
r 2.565849193 _11_ RTR  --- 0 AODV 48 [0 ffffffff 14 800] ------- [20:255 -1:255 27 0] [0x2 4 1 [39 0] [8 4]] (REQUEST)
r 2.565849203 _37_ RTR  --- 0 AODV 48 [0 ffffffff 14 800] ------- [20:255 -1:255 27 0] [0x2 4 1 [39 0] [8 4]] (REQUEST)
r 2.565849213 _19_ RTR  --- 0 AODV 48 [0 ffffffff 14 800] ------- [20:255 -1:255 27 0] [0x2 4 1 [39 0] [8 4]] (REQUEST)
r 2.565849230 _28_ RTR  --- 0 AODV 48 [0 ffffffff 14 800] ------- [20:255 -1:255 27 0] [0x2 4 1 [39 0] [8 4]] (REQUEST)
r 2.565849244 _6_ RTR  --- 0 AODV 48 [0 ffffffff 14 800] ------- [20:255 -1:255 27 0] [0x2 4 1 [39 0] [8 4]] (REQUEST)
r 2.565849253 _17_ RTR  --- 0 AODV 48 [0 ffffffff 14 800] ------- [20:255 -1:255 27 0] [0x2 4 1 [39 0] [8 4]] (REQUEST)
r 2.565849333 _43_ RTR  --- 0 AODV 48 [0 ffffffff 14 800] ------- [20:255 -1:255 27 0] [0x2 4 1 [39 0] [8 4]] (REQUEST)
s 2.566354230 _28_ MAC  --- 0 AODV 106 [0 ffffffff 1c 800] ------- [28:255 -1:255 27 0] [0x2 4 1 [39 0] [8 4]] (REQUEST)
r 2.567202680 _39_ MAC  --- 0 AODV 48 [0 ffffffff 1c 800] ------- [28:255 -1:255 27 0] [0x2 4 1 [39 0] [8 4]] (REQUEST)
r 2.567202693 _31_ MAC  --- 0 AODV 48 [0 ffffffff 1c 800] ------- [28:255 -1:255 27 0] [0x2 4 1 [39 0] [8 4]] (REQUEST)
r 2.567202735 _43_ MAC  --- 0 AODV 48 [0 ffffffff 1c 800] ------- [28:255 -1:255 27 0] [0x2 4 1 [39 0] [8 4]] (REQUEST)
r 2.567202800 _19_ MAC  --- 0 AODV 48 [0 ffffffff 1c 800] ------- [28:255 -1:255 27 0] [0x2 4 1 [39 0] [8 4]] (REQUEST)
r 2.567202817 _11_ MAC  --- 0 AODV 48 [0 ffffffff 1c 800] ------- [28:255 -1:255 27 0] [0x2 4 1 [39 0] [8 4]] (REQUEST)
r 2.567202881 _20_ MAC  --- 0 AODV 48 [0 ffffffff 1c 800] ------- [28:255 -1:255 27 0] [0x2 4 1 [39 0] [8 4]] (REQUEST)
r 2.567227680 _39_ RTR  --- 0 AODV 48 [0 ffffffff 1c 800] ------- [28:255 -1:255 27 0] [0x2 4 1 [39 0] [8 4]] (REQUEST)
s 2.567227680 _39_ RTR  --- 0 AODV 44 [0 0 0 0] ------- [39:255 8:255 30 28] [0x4 1 [39 4] 10.000000] (REPLY)
r 2.567227693 _31_ RTR  --- 0 AODV 48 [0 ffffffff 1c 800] ------- [28:255 -1:255 27 0] [0x2 4 1 [39 0] [8 4]] (REQUEST)
r 2.567227735 _43_ RTR  --- 0 AODV 48 [0 ffffffff 1c 800] ------- [28:255 -1:255 27 0] [0x2 4 1 [39 0] [8 4]] (REQUEST)
r 2.567227800 _19_ RTR  --- 0 AODV 48 [0 ffffffff 1c 800] ------- [28:255 -1:255 27 0] [0x2 4 1 [39 0] [8 4]] (REQUEST)
r 2.567227817 _11_ RTR  --- 0 AODV 48 [0 ffffffff 1c 800] ------- [28:255 -1:255 27 0] [0x2 4 1 [39 0] [8 4]] (REQUEST)
r 2.567227881 _20_ RTR  --- 0 AODV 48 [0 ffffffff 1c 800] ------- [28:255 -1:255 27 0] [0x2 4 1 [39 0] [8 4]] (REQUEST)
s 2.567302680 _39_ MAC  --- 0 ARP 86 [0 ffffffff 27 806] ------- [REQUEST 39/39 0/28]
r 2.567991130 _28_ MAC  --- 0 ARP 28 [0 ffffffff 27 806] ------- [REQUEST 39/39 0/28]
r 2.567991219 _19_ MAC  --- 0 ARP 28 [0 ffffffff 27 806] ------- [REQUEST 39/39 0/28]
r 2.567991253 _11_ MAC  --- 0 ARP 28 [0 ffffffff 27 806] ------- [REQUEST 39/39 0/28]
s 2.568142049 _43_ RTR  --- 0 AODV 48 [0 ffffffff 19 800] ------- [43:255 -1:255 28 0] [0x2 3 1 [39 0] [8 4]] (REQUEST)
s 2.568221130 _28_ MAC  --- 0 RTS 44 [52e 27 1c 0] 
r 2.568573581 _39_ MAC  --- 0 RTS 44 [52e 27 1c 0] 
s 2.568583581 _39_ MAC  --- 0 CTS 38 [3f4 1c 0 0] 
r 2.568888031 _28_ MAC  --- 0 CTS 38 [3f4 1c 0 0] 
s 2.568898031 _28_ MAC  --- 0 ARP 86 [13a 27 1c 806] ------- [REPLY 28/28 39/39]
s 2.569027196 _37_ RTR  --- 0 AODV 48 [0 ffffffff 11 800] ------- [37:255 -1:255 27 0] [0x2 4 1 [39 0] [8 4]] (REQUEST)
s 2.569336623 _19_ RTR  --- 0 AODV 48 [0 ffffffff 14 800] ------- [19:255 -1:255 26 0] [0x2 5 1 [39 0] [8 4]] (REQUEST)
r 2.569586482 _39_ MAC  --- 0 ARP 28 [13a 27 1c 806] ------- [REPLY 28/28 39/39]
s 2.569596482 _39_ MAC  --- 0 ACK 38 [0 1c 0 0] 
r 2.569900932 _28_ MAC  --- 0 ACK 38 [0 1c 0 0] 
s 2.570010482 _39_ MAC  --- 0 RTS 44 [5ae 1c 27 0] 
r 2.570362932 _28_ MAC  --- 0 RTS 44 [5ae 1c 27 0] 
s 2.570372932 _28_ MAC  --- 0 CTS 38 [474 27 0 0] 
r 2.570677383 _39_ MAC  --- 0 CTS 38 [474 27 0 0] 
s 2.570687383 _39_ MAC  --- 0 AODV 102 [13a 1c 27 800] ------- [39:255 8:255 30 28] [0x4 1 [39 4] 10.000000] (REPLY)
r 2.571503833 _28_ MAC  --- 0 AODV 44 [13a 1c 27 800] ------- [39:255 8:255 30 28] [0x4 1 [39 4] 10.000000] (REPLY)
s 2.571513833 _28_ MAC  --- 0 ACK 38 [0 27 0 0] 
r 2.571528833 _28_ RTR  --- 0 AODV 44 [13a 1c 27 800] ------- [39:255 8:255 30 28] [0x4 1 [39 4] 10.000000] (REPLY)
f 2.571528833 _28_ RTR  --- 0 AODV 44 [13a 1c 27 800] ------- [39:255 8:255 29 31] [0x4 2 [39 4] 10.000000] (REPLY)
r 2.571818284 _39_ MAC  --- 0 ACK 38 [0 27 0 0] 
s 2.572227833 _28_ MAC  --- 0 ARP 86 [0 ffffffff 1c 806] ------- [REQUEST 28/28 0/31]
r 2.572916284 _39_ MAC  --- 0 ARP 28 [0 ffffffff 1c 806] ------- [REQUEST 28/28 0/31]
r 2.572916297 _31_ MAC  --- 0 ARP 28 [0 ffffffff 1c 806] ------- [REQUEST 28/28 0/31]
r 2.572916339 _43_ MAC  --- 0 ARP 28 [0 ffffffff 1c 806] ------- [REQUEST 28/28 0/31]
r 2.572916404 _19_ MAC  --- 0 ARP 28 [0 ffffffff 1c 806] ------- [REQUEST 28/28 0/31]
r 2.572916421 _11_ MAC  --- 0 ARP 28 [0 ffffffff 1c 806] ------- [REQUEST 28/28 0/31]
r 2.572916485 _20_ MAC  --- 0 ARP 28 [0 ffffffff 1c 806] ------- [REQUEST 28/28 0/31]
s 2.573011297 _31_ MAC  --- 0 RTS 44 [52e 1c 1f 0] 
r 2.573363761 _28_ MAC  --- 0 RTS 44 [52e 1c 1f 0] 
s 2.573373761 _28_ MAC  --- 0 CTS 38 [3f4 1f 0 0] 
s 2.573387795 _6_ RTR  --- 0 AODV 48 [0 ffffffff 11 800] ------- [6:255 -1:255 27 0] [0x2 4 1 [39 0] [8 4]] (REQUEST)
r 2.573678225 _31_ MAC  --- 0 CTS 38 [3f4 1f 0 0] 
s 2.573688225 _31_ MAC  --- 0 ARP 86 [13a 1c 1f 806] ------- [REPLY 31/31 28/28]
s 2.573919478 _11_ RTR  --- 0 AODV 48 [0 ffffffff 14 800] ------- [11:255 -1:255 26 0] [0x2 5 1 [39 0] [8 4]] (REQUEST)
r 2.574376688 _28_ MAC  --- 0 ARP 28 [13a 1c 1f 806] ------- [REPLY 31/31 28/28]
s 2.574386688 _28_ MAC  --- 0 ACK 38 [0 1f 0 0] 
r 2.574691152 _31_ MAC  --- 0 ACK 38 [0 1f 0 0] 
s 2.574841194 _43_ MAC  --- 0 AODV 106 [0 ffffffff 2b 800] ------- [43:255 -1:255 28 0] [0x2 3 1 [39 0] [8 4]] (REQUEST)
r 2.575689400 _31_ MAC  --- 0 AODV 48 [0 ffffffff 2b 800] ------- [43:255 -1:255 28 0] [0x2 3 1 [39 0] [8 4]] (REQUEST)
r 2.575689700 _28_ MAC  --- 0 AODV 48 [0 ffffffff 2b 800] ------- [43:255 -1:255 28 0] [0x2 3 1 [39 0] [8 4]] (REQUEST)
r 2.575689832 _25_ MAC  --- 0 AODV 48 [0 ffffffff 2b 800] ------- [43:255 -1:255 28 0] [0x2 3 1 [39 0] [8 4]] (REQUEST)
r 2.575689902 _17_ MAC  --- 0 AODV 48 [0 ffffffff 2b 800] ------- [43:255 -1:255 28 0] [0x2 3 1 [39 0] [8 4]] (REQUEST)
r 2.575689949 _20_ MAC  --- 0 AODV 48 [0 ffffffff 2b 800] ------- [43:255 -1:255 28 0] [0x2 3 1 [39 0] [8 4]] (REQUEST)
r 2.575714400 _31_ RTR  --- 0 AODV 48 [0 ffffffff 2b 800] ------- [43:255 -1:255 28 0] [0x2 3 1 [39 0] [8 4]] (REQUEST)
r 2.575714700 _28_ RTR  --- 0 AODV 48 [0 ffffffff 2b 800] ------- [43:255 -1:255 28 0] [0x2 3 1 [39 0] [8 4]] (REQUEST)
r 2.575714832 _25_ RTR  --- 0 AODV 48 [0 ffffffff 2b 800] ------- [43:255 -1:255 28 0] [0x2 3 1 [39 0] [8 4]] (REQUEST)
r 2.575714902 _17_ RTR  --- 0 AODV 48 [0 ffffffff 2b 800] ------- [43:255 -1:255 28 0] [0x2 3 1 [39 0] [8 4]] (REQUEST)
r 2.575714949 _20_ RTR  --- 0 AODV 48 [0 ffffffff 2b 800] ------- [43:255 -1:255 28 0] [0x2 3 1 [39 0] [8 4]] (REQUEST)
s 2.575959700 _28_ MAC  --- 0 RTS 44 [5ae 1f 1c 0] 
r 2.576312164 _31_ MAC  --- 0 RTS 44 [5ae 1f 1c 0] 
s 2.576322164 _31_ MAC  --- 0 CTS 38 [474 1c 0 0] 
r 2.576626627 _28_ MAC  --- 0 CTS 38 [474 1c 0 0] 
s 2.576636627 _28_ MAC  --- 0 AODV 102 [13a 1f 1c 800] ------- [39:255 8:255 29 31] [0x4 2 [39 4] 10.000000] (REPLY)
r 2.577453091 _31_ MAC  --- 0 AODV 44 [13a 1f 1c 800] ------- [39:255 8:255 29 31] [0x4 2 [39 4] 10.000000] (REPLY)
s 2.577463091 _31_ MAC  --- 0 ACK 38 [0 1c 0 0] 
r 2.577478091 _31_ RTR  --- 0 AODV 44 [13a 1f 1c 800] ------- [39:255 8:255 29 31] [0x4 2 [39 4] 10.000000] (REPLY)
f 2.577478091 _31_ RTR  --- 0 AODV 44 [13a 1f 1c 800] ------- [39:255 8:255 28 25] [0x4 3 [39 4] 10.000000] (REPLY)
r 2.577767555 _28_ MAC  --- 0 ACK 38 [0 1c 0 0] 
s 2.578097091 _31_ MAC  --- 0 ARP 86 [0 ffffffff 1f 806] ------- [REQUEST 31/31 0/25]
r 2.578785297 _43_ MAC  --- 0 ARP 28 [0 ffffffff 1f 806] ------- [REQUEST 31/31 0/25]
r 2.578785555 _28_ MAC  --- 0 ARP 28 [0 ffffffff 1f 806] ------- [REQUEST 31/31 0/25]
r 2.578785644 _20_ MAC  --- 0 ARP 28 [0 ffffffff 1f 806] ------- [REQUEST 31/31 0/25]
r 2.578785677 _17_ MAC  --- 0 ARP 28 [0 ffffffff 1f 806] ------- [REQUEST 31/31 0/25]
r 2.578785740 _25_ MAC  --- 0 ARP 28 [0 ffffffff 1f 806] ------- [REQUEST 31/31 0/25]
s 2.579299982 _19_ MAC  --- 0 AODV 106 [0 ffffffff 13 800] ------- [19:255 -1:255 26 0] [0x2 5 1 [39 0] [8 4]] (REQUEST)
r 2.580148016 _11_ MAC  --- 0 AODV 48 [0 ffffffff 13 800] ------- [19:255 -1:255 26 0] [0x2 5 1 [39 0] [8 4]] (REQUEST)
r 2.580148514 _21_ MAC  --- 0 AODV 48 [0 ffffffff 13 800] ------- [19:255 -1:255 26 0] [0x2 5 1 [39 0] [8 4]] (REQUEST)
r 2.580148521 _39_ MAC  --- 0 AODV 48 [0 ffffffff 13 800] ------- [19:255 -1:255 26 0] [0x2 5 1 [39 0] [8 4]] (REQUEST)
r 2.580148553 _28_ MAC  --- 0 AODV 48 [0 ffffffff 13 800] ------- [19:255 -1:255 26 0] [0x2 5 1 [39 0] [8 4]] (REQUEST)
r 2.580148617 _20_ MAC  --- 0 AODV 48 [0 ffffffff 13 800] ------- [19:255 -1:255 26 0] [0x2 5 1 [39 0] [8 4]] (REQUEST)
r 2.580173016 _11_ RTR  --- 0 AODV 48 [0 ffffffff 13 800] ------- [19:255 -1:255 26 0] [0x2 5 1 [39 0] [8 4]] (REQUEST)
r 2.580173514 _21_ RTR  --- 0 AODV 48 [0 ffffffff 13 800] ------- [19:255 -1:255 26 0] [0x2 5 1 [39 0] [8 4]] (REQUEST)
r 2.580173521 _39_ RTR  --- 0 AODV 48 [0 ffffffff 13 800] ------- [19:255 -1:255 26 0] [0x2 5 1 [39 0] [8 4]] (REQUEST)
r 2.580173553 _28_ RTR  --- 0 AODV 48 [0 ffffffff 13 800] ------- [19:255 -1:255 26 0] [0x2 5 1 [39 0] [8 4]] (REQUEST)
r 2.580173617 _20_ RTR  --- 0 AODV 48 [0 ffffffff 13 800] ------- [19:255 -1:255 26 0] [0x2 5 1 [39 0] [8 4]] (REQUEST)
s 2.580418016 _11_ MAC  --- 0 AODV 106 [0 ffffffff b 800] ------- [11:255 -1:255 26 0] [0x2 5 1 [39 0] [8 4]] (REQUEST)
r 2.581266050 _19_ MAC  --- 0 AODV 48 [0 ffffffff b 800] ------- [11:255 -1:255 26 0] [0x2 5 1 [39 0] [8 4]] (REQUEST)
r 2.581266536 _21_ MAC  --- 0 AODV 48 [0 ffffffff b 800] ------- [11:255 -1:255 26 0] [0x2 5 1 [39 0] [8 4]] (REQUEST)
r 2.581266589 _39_ MAC  --- 0 AODV 48 [0 ffffffff b 800] ------- [11:255 -1:255 26 0] [0x2 5 1 [39 0] [8 4]] (REQUEST)
r 2.581266604 _28_ MAC  --- 0 AODV 48 [0 ffffffff b 800] ------- [11:255 -1:255 26 0] [0x2 5 1 [39 0] [8 4]] (REQUEST)
r 2.581266631 _20_ MAC  --- 0 AODV 48 [0 ffffffff b 800] ------- [11:255 -1:255 26 0] [0x2 5 1 [39 0] [8 4]] (REQUEST)
r 2.581291050 _19_ RTR  --- 0 AODV 48 [0 ffffffff b 800] ------- [11:255 -1:255 26 0] [0x2 5 1 [39 0] [8 4]] (REQUEST)
r 2.581291536 _21_ RTR  --- 0 AODV 48 [0 ffffffff b 800] ------- [11:255 -1:255 26 0] [0x2 5 1 [39 0] [8 4]] (REQUEST)
r 2.581291589 _39_ RTR  --- 0 AODV 48 [0 ffffffff b 800] ------- [11:255 -1:255 26 0] [0x2 5 1 [39 0] [8 4]] (REQUEST)
r 2.581291604 _28_ RTR  --- 0 AODV 48 [0 ffffffff b 800] ------- [11:255 -1:255 26 0] [0x2 5 1 [39 0] [8 4]] (REQUEST)
r 2.581291631 _20_ RTR  --- 0 AODV 48 [0 ffffffff b 800] ------- [11:255 -1:255 26 0] [0x2 5 1 [39 0] [8 4]] (REQUEST)
s 2.581741525 _25_ MAC  --- 0 RTS 44 [52e 1f 19 0] 
r 2.582094174 _31_ MAC  --- 0 RTS 44 [52e 1f 19 0] 
s 2.582104174 _31_ MAC  --- 0 CTS 38 [3f4 19 0 0] 
r 2.582408823 _25_ MAC  --- 0 CTS 38 [3f4 19 0 0] 
s 2.582418823 _25_ MAC  --- 0 ARP 86 [13a 1f 19 806] ------- [REPLY 25/25 31/31]
r 2.583107472 _31_ MAC  --- 0 ARP 28 [13a 1f 19 806] ------- [REPLY 25/25 31/31]
s 2.583117472 _31_ MAC  --- 0 ACK 38 [0 19 0 0] 
r 2.583422121 _25_ MAC  --- 0 ACK 38 [0 19 0 0] 
s 2.583531472 _31_ MAC  --- 0 RTS 44 [5ae 19 1f 0] 
r 2.583884121 _25_ MAC  --- 0 RTS 44 [5ae 19 1f 0] 
s 2.583894121 _25_ MAC  --- 0 CTS 38 [474 1f 0 0] 
r 2.584198770 _31_ MAC  --- 0 CTS 38 [474 1f 0 0] 
s 2.584208770 _31_ MAC  --- 0 AODV 102 [13a 19 1f 800] ------- [39:255 8:255 28 25] [0x4 3 [39 4] 10.000000] (REPLY)
r 2.585025418 _25_ MAC  --- 0 AODV 44 [13a 19 1f 800] ------- [39:255 8:255 28 25] [0x4 3 [39 4] 10.000000] (REPLY)
s 2.585035418 _25_ MAC  --- 0 ACK 38 [0 1f 0 0] 
r 2.585050418 _25_ RTR  --- 0 AODV 44 [13a 19 1f 800] ------- [39:255 8:255 28 25] [0x4 3 [39 4] 10.000000] (REPLY)
f 2.585050418 _25_ RTR  --- 0 AODV 44 [13a 19 1f 800] ------- [39:255 8:255 27 8] [0x4 4 [39 4] 10.000000] (REPLY)
r 2.585340067 _31_ MAC  --- 0 ACK 38 [0 1f 0 0] 
s 2.585469418 _25_ MAC  --- 0 ARP 86 [0 ffffffff 19 806] ------- [REQUEST 25/25 0/8]
r 2.586157851 _17_ MAC  --- 0 ARP 28 [0 ffffffff 19 806] ------- [REQUEST 25/25 0/8]
r 2.586157963 _8_ MAC  --- 0 ARP 28 [0 ffffffff 19 806] ------- [REQUEST 25/25 0/8]
r 2.586158057 _43_ MAC  --- 0 ARP 28 [0 ffffffff 19 806] ------- [REQUEST 25/25 0/8]
r 2.586158067 _31_ MAC  --- 0 ARP 28 [0 ffffffff 19 806] ------- [REQUEST 25/25 0/8]
s 2.586492963 _8_ MAC  --- 0 RTS 44 [52e 19 8 0] 
r 2.586845508 _25_ MAC  --- 0 RTS 44 [52e 19 8 0] 
s 2.586855508 _25_ MAC  --- 0 CTS 38 [3f4 8 0 0] 
r 2.587160052 _8_ MAC  --- 0 CTS 38 [3f4 8 0 0] 
s 2.587170052 _8_ MAC  --- 0 ARP 86 [13a 19 8 806] ------- [REPLY 8/8 25/25]
r 2.587858597 _25_ MAC  --- 0 ARP 28 [13a 19 8 806] ------- [REPLY 8/8 25/25]
s 2.587868597 _25_ MAC  --- 0 ACK 38 [0 8 0 0] 
r 2.588173142 _8_ MAC  --- 0 ACK 38 [0 8 0 0] 
s 2.588442597 _25_ MAC  --- 0 RTS 44 [5ae 8 19 0] 
r 2.588795142 _8_ MAC  --- 0 RTS 44 [5ae 8 19 0] 
s 2.588805142 _8_ MAC  --- 0 CTS 38 [474 19 0 0] 
s 2.589086992 _21_ RTR  --- 0 AODV 48 [0 ffffffff 13 800] ------- [21:255 -1:255 25 0] [0x2 6 1 [39 0] [8 4]] (REQUEST)
r 2.589109686 _25_ MAC  --- 0 CTS 38 [474 19 0 0] 
s 2.589119686 _25_ MAC  --- 0 AODV 102 [13a 8 19 800] ------- [39:255 8:255 27 8] [0x4 4 [39 4] 10.000000] (REPLY)
s 2.589441992 _21_ MAC  --- 0 AODV 106 [0 ffffffff 15 800] ------- [21:255 -1:255 25 0] [0x2 6 1 [39 0] [8 4]] (REQUEST)
r 2.589936231 _8_ MAC  --- 0 AODV 44 [13a 8 19 800] ------- [39:255 8:255 27 8] [0x4 4 [39 4] 10.000000] (REPLY)
s 2.589946231 _8_ MAC  --- 0 ACK 38 [0 19 0 0] 
r 2.589961231 _8_ RTR  --- 0 AODV 44 [13a 8 19 800] ------- [39:255 8:255 27 8] [0x4 4 [39 4] 10.000000] (REPLY)
s 2.589961231 _8_ RTR  --- 0 cbr 532 [0 0 0 0] ------- [8:0 39:0 30 25] [0] 0 0
r 2.590250775 _25_ MAC  --- 0 ACK 38 [0 19 0 0] 
r 2.590290486 _49_ MAC  --- 0 AODV 48 [0 ffffffff 15 800] ------- [21:255 -1:255 25 0] [0x2 6 1 [39 0] [8 4]] (REQUEST)
D 2.590290512 _11_ MAC  COL 0 AODV 106 [0 ffffffff 15 800] ------- [21:255 -1:255 25 0] [0x2 6 1 [39 0] [8 4]] (REQUEST)
D 2.590290524 _19_ MAC  COL 0 AODV 106 [0 ffffffff 15 800] ------- [21:255 -1:255 25 0] [0x2 6 1 [39 0] [8 4]] (REQUEST)
r 2.590290588 _2_ MAC  --- 0 AODV 48 [0 ffffffff 15 800] ------- [21:255 -1:255 25 0] [0x2 6 1 [39 0] [8 4]] (REQUEST)
r 2.590315486 _49_ RTR  --- 0 AODV 48 [0 ffffffff 15 800] ------- [21:255 -1:255 25 0] [0x2 6 1 [39 0] [8 4]] (REQUEST)
r 2.590315588 _2_ RTR  --- 0 AODV 48 [0 ffffffff 15 800] ------- [21:255 -1:255 25 0] [0x2 6 1 [39 0] [8 4]] (REQUEST)
s 2.590725371 _37_ MAC  --- 0 AODV 106 [0 ffffffff 25 800] ------- [37:255 -1:255 27 0] [0x2 4 1 [39 0] [8 4]] (REQUEST)
r 2.591573525 _6_ MAC  --- 0 AODV 48 [0 ffffffff 25 800] ------- [37:255 -1:255 27 0] [0x2 4 1 [39 0] [8 4]] (REQUEST)
r 2.591573996 _20_ MAC  --- 0 AODV 48 [0 ffffffff 25 800] ------- [37:255 -1:255 27 0] [0x2 4 1 [39 0] [8 4]] (REQUEST)
r 2.591574097 _17_ MAC  --- 0 AODV 48 [0 ffffffff 25 800] ------- [37:255 -1:255 27 0] [0x2 4 1 [39 0] [8 4]] (REQUEST)
r 2.591598525 _6_ RTR  --- 0 AODV 48 [0 ffffffff 25 800] ------- [37:255 -1:255 27 0] [0x2 4 1 [39 0] [8 4]] (REQUEST)
r 2.591598996 _20_ RTR  --- 0 AODV 48 [0 ffffffff 25 800] ------- [37:255 -1:255 27 0] [0x2 4 1 [39 0] [8 4]] (REQUEST)
r 2.591599097 _17_ RTR  --- 0 AODV 48 [0 ffffffff 25 800] ------- [37:255 -1:255 27 0] [0x2 4 1 [39 0] [8 4]] (REQUEST)
s 2.591743525 _6_ MAC  --- 0 AODV 106 [0 ffffffff 6 800] ------- [6:255 -1:255 27 0] [0x2 4 1 [39 0] [8 4]] (REQUEST)
r 2.592591679 _37_ MAC  --- 0 AODV 48 [0 ffffffff 6 800] ------- [6:255 -1:255 27 0] [0x2 4 1 [39 0] [8 4]] (REQUEST)
r 2.592592140 _17_ MAC  --- 0 AODV 48 [0 ffffffff 6 800] ------- [6:255 -1:255 27 0] [0x2 4 1 [39 0] [8 4]] (REQUEST)
r 2.592592191 _20_ MAC  --- 0 AODV 48 [0 ffffffff 6 800] ------- [6:255 -1:255 27 0] [0x2 4 1 [39 0] [8 4]] (REQUEST)
r 2.592616679 _37_ RTR  --- 0 AODV 48 [0 ffffffff 6 800] ------- [6:255 -1:255 27 0] [0x2 4 1 [39 0] [8 4]] (REQUEST)
r 2.592617140 _17_ RTR  --- 0 AODV 48 [0 ffffffff 6 800] ------- [6:255 -1:255 27 0] [0x2 4 1 [39 0] [8 4]] (REQUEST)
r 2.592617191 _20_ RTR  --- 0 AODV 48 [0 ffffffff 6 800] ------- [6:255 -1:255 27 0] [0x2 4 1 [39 0] [8 4]] (REQUEST)
s 2.592933727 _49_ RTR  --- 0 AODV 48 [0 ffffffff 15 800] ------- [49:255 -1:255 24 0] [0x2 7 1 [39 0] [8 4]] (REQUEST)
s 2.593066868 _8_ MAC  --- 0 RTS 44 [14ee 19 8 0] 
s 2.593308727 _49_ MAC  --- 0 AODV 106 [0 ffffffff 31 800] ------- [49:255 -1:255 24 0] [0x2 7 1 [39 0] [8 4]] (REQUEST)
r 2.593419413 _25_ MAC  --- 0 RTS 44 [14ee 19 8 0] 
s 2.593429413 _25_ MAC  --- 0 CTS 38 [13b4 8 0 0] 
r 2.593733957 _8_ MAC  --- 0 CTS 38 [13b4 8 0 0] 
s 2.593743957 _8_ MAC  --- 0 cbr 590 [13a 19 8 800] ------- [8:0 39:0 30 25] [0] 0 0
r 2.594157221 _21_ MAC  --- 0 AODV 48 [0 ffffffff 31 800] ------- [49:255 -1:255 24 0] [0x2 7 1 [39 0] [8 4]] (REQUEST)
r 2.594157261 _2_ MAC  --- 0 AODV 48 [0 ffffffff 31 800] ------- [49:255 -1:255 24 0] [0x2 7 1 [39 0] [8 4]] (REQUEST)
r 2.594157265 _5_ MAC  --- 0 AODV 48 [0 ffffffff 31 800] ------- [49:255 -1:255 24 0] [0x2 7 1 [39 0] [8 4]] (REQUEST)
r 2.594182221 _21_ RTR  --- 0 AODV 48 [0 ffffffff 31 800] ------- [49:255 -1:255 24 0] [0x2 7 1 [39 0] [8 4]] (REQUEST)
r 2.594182261 _2_ RTR  --- 0 AODV 48 [0 ffffffff 31 800] ------- [49:255 -1:255 24 0] [0x2 7 1 [39 0] [8 4]] (REQUEST)
r 2.594182265 _5_ RTR  --- 0 AODV 48 [0 ffffffff 31 800] ------- [49:255 -1:255 24 0] [0x2 7 1 [39 0] [8 4]] (REQUEST)
s 2.595863985 _2_ RTR  --- 0 AODV 48 [0 ffffffff 15 800] ------- [2:255 -1:255 24 0] [0x2 7 1 [39 0] [8 4]] (REQUEST)
s 2.596238985 _2_ MAC  --- 0 AODV 106 [0 ffffffff 2 800] ------- [2:255 -1:255 24 0] [0x2 7 1 [39 0] [8 4]] (REQUEST)
r 2.597087456 _5_ MAC  --- 0 AODV 48 [0 ffffffff 2 800] ------- [2:255 -1:255 24 0] [0x2 7 1 [39 0] [8 4]] (REQUEST)
r 2.597087519 _49_ MAC  --- 0 AODV 48 [0 ffffffff 2 800] ------- [2:255 -1:255 24 0] [0x2 7 1 [39 0] [8 4]] (REQUEST)
r 2.597087581 _21_ MAC  --- 0 AODV 48 [0 ffffffff 2 800] ------- [2:255 -1:255 24 0] [0x2 7 1 [39 0] [8 4]] (REQUEST)
r 2.597112456 _5_ RTR  --- 0 AODV 48 [0 ffffffff 2 800] ------- [2:255 -1:255 24 0] [0x2 7 1 [39 0] [8 4]] (REQUEST)
r 2.597112519 _49_ RTR  --- 0 AODV 48 [0 ffffffff 2 800] ------- [2:255 -1:255 24 0] [0x2 7 1 [39 0] [8 4]] (REQUEST)
r 2.597112581 _21_ RTR  --- 0 AODV 48 [0 ffffffff 2 800] ------- [2:255 -1:255 24 0] [0x2 7 1 [39 0] [8 4]] (REQUEST)
r 2.598464502 _25_ MAC  --- 0 cbr 532 [13a 19 8 800] ------- [8:0 39:0 30 25] [0] 1 0
s 2.598474502 _25_ MAC  --- 0 ACK 38 [0 8 0 0] 
r 2.598489502 _25_ RTR  --- 0 cbr 532 [13a 19 8 800] ------- [8:0 39:0 30 25] [0] 1 0
f 2.598489502 _25_ RTR  --- 0 cbr 532 [13a 19 8 800] ------- [8:0 39:0 29 31] [0] 1 0
r 2.598779047 _8_ MAC  --- 0 ACK 38 [0 8 0 0] 
s 2.598848502 _25_ MAC  --- 0 RTS 44 [14ee 1f 19 0] 
r 2.599201151 _31_ MAC  --- 0 RTS 44 [14ee 1f 19 0] 
s 2.599211151 _31_ MAC  --- 0 CTS 38 [13b4 19 0 0] 
r 2.599515800 _25_ MAC  --- 0 CTS 38 [13b4 19 0 0] 
s 2.599525800 _25_ MAC  --- 0 cbr 590 [13a 1f 19 800] ------- [8:0 39:0 29 31] [0] 1 0
s 2.602032136 _5_ RTR  --- 0 AODV 48 [0 ffffffff 31 800] ------- [5:255 -1:255 23 0] [0x2 8 1 [39 0] [8 4]] (REQUEST)
s 2.602347136 _5_ MAC  --- 0 AODV 106 [0 ffffffff 5 800] ------- [5:255 -1:255 23 0] [0x2 8 1 [39 0] [8 4]] (REQUEST)
r 2.603195607 _2_ MAC  --- 0 AODV 48 [0 ffffffff 5 800] ------- [5:255 -1:255 23 0] [0x2 8 1 [39 0] [8 4]] (REQUEST)
r 2.603195673 _49_ MAC  --- 0 AODV 48 [0 ffffffff 5 800] ------- [5:255 -1:255 23 0] [0x2 8 1 [39 0] [8 4]] (REQUEST)
r 2.603220607 _2_ RTR  --- 0 AODV 48 [0 ffffffff 5 800] ------- [5:255 -1:255 23 0] [0x2 8 1 [39 0] [8 4]] (REQUEST)
r 2.603220673 _49_ RTR  --- 0 AODV 48 [0 ffffffff 5 800] ------- [5:255 -1:255 23 0] [0x2 8 1 [39 0] [8 4]] (REQUEST)
r 2.604246449 _31_ MAC  --- 0 cbr 532 [13a 1f 19 800] ------- [8:0 39:0 29 31] [0] 2 0
s 2.604256449 _31_ MAC  --- 0 ACK 38 [0 19 0 0] 
r 2.604271449 _31_ RTR  --- 0 cbr 532 [13a 1f 19 800] ------- [8:0 39:0 29 31] [0] 2 0
f 2.604271449 _31_ RTR  --- 0 cbr 532 [13a 1f 19 800] ------- [8:0 39:0 28 28] [0] 2 0
r 2.604561098 _25_ MAC  --- 0 ACK 38 [0 19 0 0] 
s 2.604910449 _31_ MAC  --- 0 RTS 44 [14ee 1c 1f 0] 
r 2.605262912 _28_ MAC  --- 0 RTS 44 [14ee 1c 1f 0] 
s 2.605272912 _28_ MAC  --- 0 CTS 38 [13b4 1f 0 0] 
r 2.605577376 _31_ MAC  --- 0 CTS 38 [13b4 1f 0 0] 
s 2.605587376 _31_ MAC  --- 0 cbr 590 [13a 1c 1f 800] ------- [8:0 39:0 28 28] [0] 2 0
r 2.610307840 _28_ MAC  --- 0 cbr 532 [13a 1c 1f 800] ------- [8:0 39:0 28 28] [0] 3 0
s 2.610317840 _28_ MAC  --- 0 ACK 38 [0 1f 0 0] 
r 2.610332840 _28_ RTR  --- 0 cbr 532 [13a 1c 1f 800] ------- [8:0 39:0 28 28] [0] 3 0
f 2.610332840 _28_ RTR  --- 0 cbr 532 [13a 1c 1f 800] ------- [8:0 39:0 27 39] [0] 3 0
r 2.610622304 _31_ MAC  --- 0 ACK 38 [0 1f 0 0] 
s 2.611131840 _28_ MAC  --- 0 RTS 44 [14ee 27 1c 0] 
r 2.611484290 _39_ MAC  --- 0 RTS 44 [14ee 27 1c 0] 
s 2.611494290 _39_ MAC  --- 0 CTS 38 [13b4 1c 0 0] 
r 2.611798741 _28_ MAC  --- 0 CTS 38 [13b4 1c 0 0] 
s 2.611808741 _28_ MAC  --- 0 cbr 590 [13a 27 1c 800] ------- [8:0 39:0 27 39] [0] 3 0
r 2.616529191 _39_ MAC  --- 0 cbr 532 [13a 27 1c 800] ------- [8:0 39:0 27 39] [0] 4 0
s 2.616539191 _39_ MAC  --- 0 ACK 38 [0 1c 0 0] 
r 2.616554191 _39_ AGT  --- 0 cbr 532 [13a 27 1c 800] ------- [8:0 39:0 27 39] [0] 4 0
r 2.616843642 _28_ MAC  --- 0 ACK 38 [0 1c 0 0] 
M 3.00000 0 (1207.12, 1351.65, 0.00), (1206.26, 1351.65), 0.86
M 3.00000 1 (1319.63, 451.65, 0.00), (1299.95, 451.65), 19.68
M 3.00000 2 (289.12, 1351.65, 0.00), (269.83, 1351.65), 19.29
M 3.00000 3 (1051.65, 1459.44, 0.00), (1051.65, 1459.44), 15.70
s 3.057178456 _8_ AGT  --- 1 cbr 512 [0 0 0 0] ------- [8:0 39:0 32 0] [1] 0 0
r 3.057178456 _8_ RTR  --- 1 cbr 512 [0 0 0 0] ------- [8:0 39:0 32 0] [1] 0 0
s 3.057178456 _8_ RTR  --- 1 cbr 532 [0 0 0 0] ------- [8:0 39:0 30 25] [1] 0 0
s 3.057333456 _8_ MAC  --- 0 RTS 44 [14ee 19 8 0] 
r 3.057686001 _25_ MAC  --- 0 RTS 44 [14ee 19 8 0] 
s 3.057696001 _25_ MAC  --- 0 CTS 38 [13b4 8 0 0] 
r 3.058000545 _8_ MAC  --- 0 CTS 38 [13b4 8 0 0] 
s 3.058010545 _8_ MAC  --- 1 cbr 590 [13a 19 8 800] ------- [8:0 39:0 30 25] [1] 0 0
r 3.062731090 _25_ MAC  --- 1 cbr 532 [13a 19 8 800] ------- [8:0 39:0 30 25] [1] 1 0
s 3.062741090 _25_ MAC  --- 0 ACK 38 [0 8 0 0] 
r 3.062756090 _25_ RTR  --- 1 cbr 532 [13a 19 8 800] ------- [8:0 39:0 30 25] [1] 1 0
f 3.062756090 _25_ RTR  --- 1 cbr 532 [13a 19 8 800] ------- [8:0 39:0 29 31] [1] 1 0
r 3.063045634 _8_ MAC  --- 0 ACK 38 [0 8 0 0] 
s 3.063355090 _25_ MAC  --- 0 RTS 44 [14ee 1f 19 0] 
r 3.063707739 _31_ MAC  --- 0 RTS 44 [14ee 1f 19 0] 
s 3.063717739 _31_ MAC  --- 0 CTS 38 [13b4 19 0 0] 
r 3.064022388 _25_ MAC  --- 0 CTS 38 [13b4 19 0 0] 
s 3.064032388 _25_ MAC  --- 1 cbr 590 [13a 1f 19 800] ------- [8:0 39:0 29 31] [1] 1 0
r 3.068753037 _31_ MAC  --- 1 cbr 532 [13a 1f 19 800] ------- [8:0 39:0 29 31] [1] 2 0
s 3.068763037 _31_ MAC  --- 0 ACK 38 [0 19 0 0] 
r 3.068778037 _31_ RTR  --- 1 cbr 532 [13a 1f 19 800] ------- [8:0 39:0 29 31] [1] 2 0