M 0.00000 0 (301.65, 429.94, 0.00), (301.65, 429.94), 20.00
M 1.00000 0 (301.65, 429.94, 0.00), (303.52, 448.18), 19.07
M 1.00000 1 (288.86, 301.65, 0.00), (288.86, 301.65), 20.00
M 2.00000 0 (303.52, 448.18, 0.00), (322.87, 448.35), 19.36
M 2.00000 1 (288.86, 301.65, 0.00), (269.63, 301.65), 19.23
M 2.00000 2 (10.88, 148.35, 0.00), (10.88, 148.35), 20.00
s 2.556838879 _15_ AGT  --- 0 cbr 512 [0 0 0 0] ------- [15:0 16:0 32 0] [0] 0 0
r 2.556838879 _15_ RTR  --- 0 cbr 512 [0 0 0 0] ------- [15:0 16:0 32 0] [0] 0 0
s 2.556838879 _15_ RTR  --- 0 AODV 48 [0 0 0 0] ------- [15:255 -1:255 30 0] [0x2 1 1 [16 0] [15 4]] (REQUEST)
s 2.556953879 _15_ MAC  --- 0 AODV 106 [0 ffffffff f 800] ------- [15:255 -1:255 30 0] [0x2 1 1 [16 0] [15 4]] (REQUEST)
r 2.557802153 _19_ MAC  --- 0 AODV 48 [0 ffffffff f 800] ------- [15:255 -1:255 30 0] [0x2 1 1 [16 0] [15 4]] (REQUEST)
r 2.557802160 _6_ MAC  --- 0 AODV 48 [0 ffffffff f 800] ------- [15:255 -1:255 30 0] [0x2 1 1 [16 0] [15 4]] (REQUEST)
r 2.557802369 _18_ MAC  --- 0 AODV 48 [0 ffffffff f 800] ------- [15:255 -1:255 30 0] [0x2 1 1 [16 0] [15 4]] (REQUEST)
r 2.557802506 _17_ MAC  --- 0 AODV 48 [0 ffffffff f 800] ------- [15:255 -1:255 30 0] [0x2 1 1 [16 0] [15 4]] (REQUEST)
r 2.557827153 _19_ RTR  --- 0 AODV 48 [0 ffffffff f 800] ------- [15:255 -1:255 30 0] [0x2 1 1 [16 0] [15 4]] (REQUEST)
r 2.557827160 _6_ RTR  --- 0 AODV 48 [0 ffffffff f 800] ------- [15:255 -1:255 30 0] [0x2 1 1 [16 0] [15 4]] (REQUEST)
r 2.557827369 _18_ RTR  --- 0 AODV 48 [0 ffffffff f 800] ------- [15:255 -1:255 30 0] [0x2 1 1 [16 0] [15 4]] (REQUEST)
r 2.557827506 _17_ RTR  --- 0 AODV 48 [0 ffffffff f 800] ------- [15:255 -1:255 30 0] [0x2 1 1 [16 0] [15 4]] (REQUEST)
s 2.558708380 _19_ RTR  --- 0 AODV 48 [0 ffffffff f 800] ------- [19:255 -1:255 29 0] [0x2 2 1 [16 0] [15 4]] (REQUEST)
s 2.558983380 _19_ MAC  --- 0 AODV 106 [0 ffffffff 13 800] ------- [19:255 -1:255 29 0] [0x2 2 1 [16 0] [15 4]] (REQUEST)
r 2.559831654 _15_ MAC  --- 0 AODV 48 [0 ffffffff 13 800] ------- [19:255 -1:255 29 0] [0x2 2 1 [16 0] [15 4]] (REQUEST)
r 2.559831894 _6_ MAC  --- 0 AODV 48 [0 ffffffff 13 800] ------- [19:255 -1:255 29 0] [0x2 2 1 [16 0] [15 4]] (REQUEST)
r 2.559831961 _18_ MAC  --- 0 AODV 48 [0 ffffffff 13 800] ------- [19:255 -1:255 29 0] [0x2 2 1 [16 0] [15 4]] (REQUEST)
r 2.559831968 _10_ MAC  --- 0 AODV 48 [0 ffffffff 13 800] ------- [19:255 -1:255 29 0] [0x2 2 1 [16 0] [15 4]] (REQUEST)
r 2.559832035 _3_ MAC  --- 0 AODV 48 [0 ffffffff 13 800] ------- [19:255 -1:255 29 0] [0x2 2 1 [16 0] [15 4]] (REQUEST)
r 2.559832202 _17_ MAC  --- 0 AODV 48 [0 ffffffff 13 800] ------- [19:255 -1:255 29 0] [0x2 2 1 [16 0] [15 4]] (REQUEST)
r 2.559856654 _15_ RTR  --- 0 AODV 48 [0 ffffffff 13 800] ------- [19:255 -1:255 29 0] [0x2 2 1 [16 0] [15 4]] (REQUEST)
r 2.559856894 _6_ RTR  --- 0 AODV 48 [0 ffffffff 13 800] ------- [19:255 -1:255 29 0] [0x2 2 1 [16 0] [15 4]] (REQUEST)
r 2.559856961 _18_ RTR  --- 0 AODV 48 [0 ffffffff 13 800] ------- [19:255 -1:255 29 0] [0x2 2 1 [16 0] [15 4]] (REQUEST)
r 2.559856968 _10_ RTR  --- 0 AODV 48 [0 ffffffff 13 800] ------- [19:255 -1:255 29 0] [0x2 2 1 [16 0] [15 4]] (REQUEST)
r 2.559857035 _3_ RTR  --- 0 AODV 48 [0 ffffffff 13 800] ------- [19:255 -1:255 29 0] [0x2 2 1 [16 0] [15 4]] (REQUEST)
s 2.559857035 _3_ RTR  --- 0 AODV 44 [0 0 0 0] ------- [3:255 15:255 30 19] [0x4 1 [16 4] 10.000000] (REPLY)
r 2.559857202 _17_ RTR  --- 0 AODV 48 [0 ffffffff 13 800] ------- [19:255 -1:255 29 0] [0x2 2 1 [16 0] [15 4]] (REQUEST)
s 2.560172035 _3_ MAC  --- 0 ARP 86 [0 ffffffff 3 806] ------- [REQUEST 3/3 0/19]
r 2.560860332 _10_ MAC  --- 0 ARP 28 [0 ffffffff 3 806] ------- [REQUEST 3/3 0/19]
r 2.560860504 _14_ MAC  --- 0 ARP 28 [0 ffffffff 3 806] ------- [REQUEST 3/3 0/19]
r 2.560860691 _19_ MAC  --- 0 ARP 28 [0 ffffffff 3 806] ------- [REQUEST 3/3 0/19]
s 2.560955691 _19_ MAC  --- 0 RTS 44 [52e 3 13 0] 
s 2.560957123 _17_ RTR  --- 0 AODV 48 [0 ffffffff f 800] ------- [17:255 -1:255 29 0] [0x2 2 1 [16 0] [15 4]] (REQUEST)
r 2.561308347 _3_ MAC  --- 0 RTS 44 [52e 3 13 0] 
s 2.561318347 _3_ MAC  --- 0 CTS 38 [3f4 13 0 0] 
r 2.561623002 _19_ MAC  --- 0 CTS 38 [3f4 13 0 0] 
s 2.561633002 _19_ MAC  --- 0 ARP 86 [13a 3 13 806] ------- [REPLY 19/19 3/3]
s 2.562238893 _6_ RTR  --- 0 AODV 48 [0 ffffffff f 800] ------- [6:255 -1:255 29 0] [0x2 2 1 [16 0] [15 4]] (REQUEST)
r 2.562321658 _3_ MAC  --- 0 ARP 28 [13a 3 13 806] ------- [REPLY 19/19 3/3]
s 2.562331658 _3_ MAC  --- 0 ACK 38 [0 13 0 0] 
r 2.562636314 _19_ MAC  --- 0 ACK 38 [0 13 0 0] 
s 2.562885658 _3_ MAC  --- 0 RTS 44 [5ae 13 3 0] 
r 2.563238314 _19_ MAC  --- 0 RTS 44 [5ae 13 3 0] 
s 2.563248314 _19_ MAC  --- 0 CTS 38 [474 3 0 0] 
r 2.563552970 _3_ MAC  --- 0 CTS 38 [474 3 0 0] 
s 2.563562970 _3_ MAC  --- 0 AODV 102 [13a 13 3 800] ------- [3:255 15:255 30 19] [0x4 1 [16 4] 10.000000] (REPLY)
r 2.564379625 _19_ MAC  --- 0 AODV 44 [13a 13 3 800] ------- [3:255 15:255 30 19] [0x4 1 [16 4] 10.000000] (REPLY)
s 2.564389625 _19_ MAC  --- 0 ACK 38 [0 3 0 0] 
r 2.564404625 _19_ RTR  --- 0 AODV 44 [13a 13 3 800] ------- [3:255 15:255 30 19] [0x4 1 [16 4] 10.000000] (REPLY)
f 2.564404625 _19_ RTR  --- 0 AODV 44 [13a 13 3 800] ------- [3:255 15:255 29 15] [0x4 2 [16 4] 10.000000] (REPLY)
r 2.564694281 _3_ MAC  --- 0 ACK 38 [0 3 0 0] 
s 2.564923625 _19_ MAC  --- 0 ARP 86 [0 ffffffff 13 806] ------- [REQUEST 19/19 0/15]
r 2.565611900 _15_ MAC  --- 0 ARP 28 [0 ffffffff 13 806] ------- [REQUEST 19/19 0/15]
r 2.565612139 _6_ MAC  --- 0 ARP 28 [0 ffffffff 13 806] ------- [REQUEST 19/19 0/15]
r 2.565612207 _18_ MAC  --- 0 ARP 28 [0 ffffffff 13 806] ------- [REQUEST 19/19 0/15]
r 2.565612214 _10_ MAC  --- 0 ARP 28 [0 ffffffff 13 806] ------- [REQUEST 19/19 0/15]
r 2.565612281 _3_ MAC  --- 0 ARP 28 [0 ffffffff 13 806] ------- [REQUEST 19/19 0/15]
r 2.565612447 _17_ MAC  --- 0 ARP 28 [0 ffffffff 13 806] ------- [REQUEST 19/19 0/15]
s 2.565702139 _6_ MAC  --- 0 AODV 106 [0 ffffffff 6 800] ------- [6:255 -1:255 29 0] [0x2 2 1 [16 0] [15 4]] (REQUEST)
s 2.565818924 _18_ RTR  --- 0 AODV 48 [0 ffffffff f 800] ------- [18:255 -1:255 29 0] [0x2 2 1 [16 0] [15 4]] (REQUEST)
s 2.566245619 _10_ RTR  --- 0 AODV 48 [0 ffffffff 13 800] ------- [10:255 -1:255 28 0] [0x2 3 1 [16 0] [15 4]] (REQUEST)
r 2.566550420 _15_ MAC  --- 0 AODV 48 [0 ffffffff 6 800] ------- [6:255 -1:255 29 0] [0x2 2 1 [16 0] [15 4]] (REQUEST)
r 2.566550474 _18_ MAC  --- 0 AODV 48 [0 ffffffff 6 800] ------- [6:255 -1:255 29 0] [0x2 2 1 [16 0] [15 4]] (REQUEST)
r 2.566550491 _17_ MAC  --- 0 AODV 48 [0 ffffffff 6 800] ------- [6:255 -1:255 29 0] [0x2 2 1 [16 0] [15 4]] (REQUEST)
r 2.566550654 _19_ MAC  --- 0 AODV 48 [0 ffffffff 6 800] ------- [6:255 -1:255 29 0] [0x2 2 1 [16 0] [15 4]] (REQUEST)
r 2.566575420 _15_ RTR  --- 0 AODV 48 [0 ffffffff 6 800] ------- [6:255 -1:255 29 0] [0x2 2 1 [16 0] [15 4]] (REQUEST)
r 2.566575474 _18_ RTR  --- 0 AODV 48 [0 ffffffff 6 800] ------- [6:255 -1:255 29 0] [0x2 2 1 [16 0] [15 4]] (REQUEST)
r 2.566575491 _17_ RTR  --- 0 AODV 48 [0 ffffffff 6 800] ------- [6:255 -1:255 29 0] [0x2 2 1 [16 0] [15 4]] (REQUEST)
r 2.566575654 _19_ RTR  --- 0 AODV 48 [0 ffffffff 6 800] ------- [6:255 -1:255 29 0] [0x2 2 1 [16 0] [15 4]] (REQUEST)
s 2.566940474 _18_ MAC  --- 0 AODV 106 [0 ffffffff 12 800] ------- [18:255 -1:255 29 0] [0x2 2 1 [16 0] [15 4]] (REQUEST)
r 2.567788808 _6_ MAC  --- 0 AODV 48 [0 ffffffff 12 800] ------- [18:255 -1:255 29 0] [0x2 2 1 [16 0] [15 4]] (REQUEST)
r 2.567788812 _17_ MAC  --- 0 AODV 48 [0 ffffffff 12 800] ------- [18:255 -1:255 29 0] [0x2 2 1 [16 0] [15 4]] (REQUEST)
r 2.567788964 _15_ MAC  --- 0 AODV 48 [0 ffffffff 12 800] ------- [18:255 -1:255 29 0] [0x2 2 1 [16 0] [15 4]] (REQUEST)
r 2.567789055 _19_ MAC  --- 0 AODV 48 [0 ffffffff 12 800] ------- [18:255 -1:255 29 0] [0x2 2 1 [16 0] [15 4]] (REQUEST)
r 2.567789056 _9_ MAC  --- 0 AODV 48 [0 ffffffff 12 800] ------- [18:255 -1:255 29 0] [0x2 2 1 [16 0] [15 4]] (REQUEST)
r 2.567789058 _13_ MAC  --- 0 AODV 48 [0 ffffffff 12 800] ------- [18:255 -1:255 29 0] [0x2 2 1 [16 0] [15 4]] (REQUEST)
r 2.567789145 _1_ MAC  --- 0 AODV 48 [0 ffffffff 12 800] ------- [18:255 -1:255 29 0] [0x2 2 1 [16 0] [15 4]] (REQUEST)
r 2.567789196 _12_ MAC  --- 0 AODV 48 [0 ffffffff 12 800] ------- [18:255 -1:255 29 0] [0x2 2 1 [16 0] [15 4]] (REQUEST)
r 2.567813808 _6_ RTR  --- 0 AODV 48 [0 ffffffff 12 800] ------- [18:255 -1:255 29 0] [0x2 2 1 [16 0] [15 4]] (REQUEST)
r 2.567813812 _17_ RTR  --- 0 AODV 48 [0 ffffffff 12 800] ------- [18:255 -1:255 29 0] [0x2 2 1 [16 0] [15 4]] (REQUEST)
r 2.567813964 _15_ RTR  --- 0 AODV 48 [0 ffffffff 12 800] ------- [18:255 -1:255 29 0] [0x2 2 1 [16 0] [15 4]] (REQUEST)
r 2.567814055 _19_ RTR  --- 0 AODV 48 [0 ffffffff 12 800] ------- [18:255 -1:255 29 0] [0x2 2 1 [16 0] [15 4]] (REQUEST)
r 2.567814056 _9_ RTR  --- 0 AODV 48 [0 ffffffff 12 800] ------- [18:255 -1:255 29 0] [0x2 2 1 [16 0] [15 4]] (REQUEST)
r 2.567814058 _13_ RTR  --- 0 AODV 48 [0 ffffffff 12 800] ------- [18:255 -1:255 29 0] [0x2 2 1 [16 0] [15 4]] (REQUEST)
r 2.567814145 _1_ RTR  --- 0 AODV 48 [0 ffffffff 12 800] ------- [18:255 -1:255 29 0] [0x2 2 1 [16 0] [15 4]] (REQUEST)
r 2.567814196 _12_ RTR  --- 0 AODV 48 [0 ffffffff 12 800] ------- [18:255 -1:255 29 0] [0x2 2 1 [16 0] [15 4]] (REQUEST)
s 2.567878812 _17_ MAC  --- 0 AODV 106 [0 ffffffff 11 800] ------- [17:255 -1:255 29 0] [0x2 2 1 [16 0] [15 4]] (REQUEST)
r 2.568727150 _18_ MAC  --- 0 AODV 48 [0 ffffffff 11 800] ------- [17:255 -1:255 29 0] [0x2 2 1 [16 0] [15 4]] (REQUEST)
r 2.568727163 _6_ MAC  --- 0 AODV 48 [0 ffffffff 11 800] ------- [17:255 -1:255 29 0] [0x2 2 1 [16 0] [15 4]] (REQUEST)
r 2.568727439 _15_ MAC  --- 0 AODV 48 [0 ffffffff 11 800] ------- [17:255 -1:255 29 0] [0x2 2 1 [16 0] [15 4]] (REQUEST)
r 2.568727615 _9_ MAC  --- 0 AODV 48 [0 ffffffff 11 800] ------- [17:255 -1:255 29 0] [0x2 2 1 [16 0] [15 4]] (REQUEST)
r 2.568727633 _13_ MAC  --- 0 AODV 48 [0 ffffffff 11 800] ------- [17:255 -1:255 29 0] [0x2 2 1 [16 0] [15 4]] (REQUEST)
r 2.568727634 _19_ MAC  --- 0 AODV 48 [0 ffffffff 11 800] ------- [17:255 -1:255 29 0] [0x2 2 1 [16 0] [15 4]] (REQUEST)
r 2.568752150 _18_ RTR  --- 0 AODV 48 [0 ffffffff 11 800] ------- [17:255 -1:255 29 0] [0x2 2 1 [16 0] [15 4]] (REQUEST)
r 2.568752163 _6_ RTR  --- 0 AODV 48 [0 ffffffff 11 800] ------- [17:255 -1:255 29 0] [0x2 2 1 [16 0] [15 4]] (REQUEST)
r 2.568752439 _15_ RTR  --- 0 AODV 48 [0 ffffffff 11 800] ------- [17:255 -1:255 29 0] [0x2 2 1 [16 0] [15 4]] (REQUEST)
r 2.568752615 _9_ RTR  --- 0 AODV 48 [0 ffffffff 11 800] ------- [17:255 -1:255 29 0] [0x2 2 1 [16 0] [15 4]] (REQUEST)
r 2.568752633 _13_ RTR  --- 0 AODV 48 [0 ffffffff 11 800] ------- [17:255 -1:255 29 0] [0x2 2 1 [16 0] [15 4]] (REQUEST)
r 2.568752634 _19_ RTR  --- 0 AODV 48 [0 ffffffff 11 800] ------- [17:255 -1:255 29 0] [0x2 2 1 [16 0] [15 4]] (REQUEST)
s 2.568857439 _15_ MAC  --- 0 RTS 44 [52e 13 f 0] 
r 2.569209713 _19_ MAC  --- 0 RTS 44 [52e 13 f 0] 
s 2.569219713 _19_ MAC  --- 0 CTS 38 [3f4 f 0 0] 
r 2.569523987 _15_ MAC  --- 0 CTS 38 [3f4 f 0 0] 
s 2.569533987 _15_ MAC  --- 0 ARP 86 [13a 13 f 806] ------- [REPLY 15/15 19/19]
r 2.570222261 _19_ MAC  --- 0 ARP 28 [13a 13 f 806] ------- [REPLY 15/15 19/19]
s 2.570232261 _19_ MAC  --- 0 ACK 38 [0 f 0 0] 
r 2.570536535 _15_ MAC  --- 0 ACK 38 [0 f 0 0] 
s 2.570956829 _10_ MAC  --- 0 AODV 106 [0 ffffffff a 800] ------- [10:255 -1:255 28 0] [0x2 3 1 [16 0] [15 4]] (REQUEST)
r 2.571805126 _3_ MAC  --- 0 AODV 48 [0 ffffffff a 800] ------- [10:255 -1:255 28 0] [0x2 3 1 [16 0] [15 4]] (REQUEST)
r 2.571805319 _14_ MAC  --- 0 AODV 48 [0 ffffffff a 800] ------- [10:255 -1:255 28 0] [0x2 3 1 [16 0] [15 4]] (REQUEST)
r 2.571805417 _19_ MAC  --- 0 AODV 48 [0 ffffffff a 800] ------- [10:255 -1:255 28 0] [0x2 3 1 [16 0] [15 4]] (REQUEST)
r 2.571805509 _0_ MAC  --- 0 AODV 48 [0 ffffffff a 800] ------- [10:255 -1:255 28 0] [0x2 3 1 [16 0] [15 4]] (REQUEST)
r 2.571805619 _12_ MAC  --- 0 AODV 48 [0 ffffffff a 800] ------- [10:255 -1:255 28 0] [0x2 3 1 [16 0] [15 4]] (REQUEST)
r 2.571830126 _3_ RTR  --- 0 AODV 48 [0 ffffffff a 800] ------- [10:255 -1:255 28 0] [0x2 3 1 [16 0] [15 4]] (REQUEST)
r 2.571830319 _14_ RTR  --- 0 AODV 48 [0 ffffffff a 800] ------- [10:255 -1:255 28 0] [0x2 3 1 [16 0] [15 4]] (REQUEST)
r 2.571830417 _19_ RTR  --- 0 AODV 48 [0 ffffffff a 800] ------- [10:255 -1:255 28 0] [0x2 3 1 [16 0] [15 4]] (REQUEST)
r 2.571830509 _0_ RTR  --- 0 AODV 48 [0 ffffffff a 800] ------- [10:255 -1:255 28 0] [0x2 3 1 [16 0] [15 4]] (REQUEST)
r 2.571830619 _12_ RTR  --- 0 AODV 48 [0 ffffffff a 800] ------- [10:255 -1:255 28 0] [0x2 3 1 [16 0] [15 4]] (REQUEST)
s 2.571895417 _19_ MAC  --- 0 RTS 44 [5ae f 13 0] 
s 2.571900913 _9_ RTR  --- 0 AODV 48 [0 ffffffff 12 800] ------- [9:255 -1:255 28 0] [0x2 3 1 [16 0] [15 4]] (REQUEST)
r 2.572247692 _15_ MAC  --- 0 RTS 44 [5ae f 13 0] 
s 2.572257692 _15_ MAC  --- 0 CTS 38 [474 13 0 0] 
s 2.572475304 _1_ RTR  --- 0 AODV 48 [0 ffffffff 12 800] ------- [1:255 -1:255 28 0] [0x2 3 1 [16 0] [15 4]] (REQUEST)
r 2.572561966 _19_ MAC  --- 0 CTS 38 [474 13 0 0] 
s 2.572571966 _19_ MAC  --- 0 AODV 102 [13a f 13 800] ------- [3:255 15:255 29 15] [0x4 2 [16 4] 10.000000] (REPLY)
s 2.573000546 _13_ RTR  --- 0 AODV 48 [0 ffffffff 12 800] ------- [13:255 -1:255 28 0] [0x2 3 1 [16 0] [15 4]] (REQUEST)
r 2.573388240 _15_ MAC  --- 0 AODV 44 [13a f 13 800] ------- [3:255 15:255 29 15] [0x4 2 [16 4] 10.000000] (REPLY)
s 2.573398240 _15_ MAC  --- 0 ACK 38 [0 13 0 0] 
r 2.573413240 _15_ RTR  --- 0 AODV 44 [13a f 13 800] ------- [3:255 15:255 29 15] [0x4 2 [16 4] 10.000000] (REPLY)
s 2.573413240 _15_ RTR  --- 0 cbr 532 [0 0 0 0] ------- [15:0 16:0 30 19] [0] 0 0
r 2.573702514 _19_ MAC  --- 0 ACK 38 [0 13 0 0] 
s 2.573932240 _15_ MAC  --- 0 RTS 44 [14ee 13 f 0] 
r 2.574284514 _19_ MAC  --- 0 RTS 44 [14ee 13 f 0] 
s 2.574294514 _19_ MAC  --- 0 CTS 38 [13b4 f 0 0] 
r 2.574598788 _15_ MAC  --- 0 CTS 38 [13b4 f 0 0] 
s 2.574608788 _15_ MAC  --- 0 cbr 590 [13a 13 f 800] ------- [15:0 16:0 30 19] [0] 0 0
s 2.574737264 _12_ RTR  --- 0 AODV 48 [0 ffffffff 12 800] ------- [12:255 -1:255 28 0] [0x2 3 1 [16 0] [15 4]] (REQUEST)
s 2.578603998 _0_ RTR  --- 0 AODV 48 [0 ffffffff a 800] ------- [0:255 -1:255 27 0] [0x2 4 1 [16 0] [15 4]] (REQUEST)
r 2.579329062 _19_ MAC  --- 0 cbr 532 [13a 13 f 800] ------- [15:0 16:0 30 19] [0] 1 0
s 2.579339062 _19_ MAC  --- 0 ACK 38 [0 f 0 0] 
r 2.579354062 _19_ RTR  --- 0 cbr 532 [13a 13 f 800] ------- [15:0 16:0 30 19] [0] 1 0
f 2.579354062 _19_ RTR  --- 0 cbr 532 [13a 13 f 800] ------- [15:0 16:0 29 3] [0] 1 0
r 2.579643336 _15_ MAC  --- 0 ACK 38 [0 f 0 0] 
s 2.579793062 _19_ MAC  --- 0 RTS 44 [14ee 3 13 0] 
r 2.580145718 _3_ MAC  --- 0 RTS 44 [14ee 3 13 0] 
s 2.580155718 _3_ MAC  --- 0 CTS 38 [13b4 13 0 0] 
s 2.580341385 _14_ RTR  --- 0 AODV 48 [0 ffffffff a 800] ------- [14:255 -1:255 27 0] [0x2 4 1 [16 0] [15 4]] (REQUEST)
r 2.580460374 _19_ MAC  --- 0 CTS 38 [13b4 13 0 0] 
s 2.580470374 _19_ MAC  --- 0 cbr 590 [13a 3 13 800] ------- [15:0 16:0 29 3] [0] 1 0
r 2.585191029 _3_ MAC  --- 0 cbr 532 [13a 3 13 800] ------- [15:0 16:0 29 3] [0] 2 0
s 2.585201029 _3_ MAC  --- 0 ACK 38 [0 13 0 0] 
r 2.585216029 _3_ RTR  --- 0 cbr 532 [13a 3 13 800] ------- [15:0 16:0 29 3] [0] 2 0
D 2.585216029 _3_ RTR LOOP 0 cbr 532 [13a 3 13 800] ------- [15:0 16:0 28 3] [0] 2 0
r 2.585505685 _19_ MAC  --- 0 ACK 38 [0 13 0 0] 
s 2.585825432 _14_ MAC  --- 0 AODV 106 [0 ffffffff e 800] ------- [14:255 -1:255 27 0] [0x2 4 1 [16 0] [15 4]] (REQUEST)
r 2.586673901 _3_ MAC  --- 0 AODV 48 [0 ffffffff e 800] ------- [14:255 -1:255 27 0] [0x2 4 1 [16 0] [15 4]] (REQUEST)
r 2.586673922 _10_ MAC  --- 0 AODV 48 [0 ffffffff e 800] ------- [14:255 -1:255 27 0] [0x2 4 1 [16 0] [15 4]] (REQUEST)
r 2.586674218 _8_ MAC  --- 0 AODV 48 [0 ffffffff e 800] ------- [14:255 -1:255 27 0] [0x2 4 1 [16 0] [15 4]] (REQUEST)
r 2.586674246 _0_ MAC  --- 0 AODV 48 [0 ffffffff e 800] ------- [14:255 -1:255 27 0] [0x2 4 1 [16 0] [15 4]] (REQUEST)
r 2.586698901 _3_ RTR  --- 0 AODV 48 [0 ffffffff e 800] ------- [14:255 -1:255 27 0] [0x2 4 1 [16 0] [15 4]] (REQUEST)
r 2.586698922 _10_ RTR  --- 0 AODV 48 [0 ffffffff e 800] ------- [14:255 -1:255 27 0] [0x2 4 1 [16 0] [15 4]] (REQUEST)
r 2.586699218 _8_ RTR  --- 0 AODV 48 [0 ffffffff e 800] ------- [14:255 -1:255 27 0] [0x2 4 1 [16 0] [15 4]] (REQUEST)
s 2.586699218 _8_ RTR  --- 0 AODV 44 [0 0 0 0] ------- [8:255 15:255 30 14] [0x4 1 [16 4] 10.000000] (REPLY)
r 2.586699246 _0_ RTR  --- 0 AODV 48 [0 ffffffff e 800] ------- [14:255 -1:255 27 0] [0x2 4 1 [16 0] [15 4]] (REQUEST)
s 2.586814218 _8_ MAC  --- 0 ARP 86 [0 ffffffff 8 806] ------- [REQUEST 8/8 0/14]
r 2.587502744 _4_ MAC  --- 0 ARP 28 [0 ffffffff 8 806] ------- [REQUEST 8/8 0/14]
r 2.587502749 _0_ MAC  --- 0 ARP 28 [0 ffffffff 8 806] ------- [REQUEST 8/8 0/14]
r 2.587502822 _11_ MAC  --- 0 ARP 28 [0 ffffffff 8 806] ------- [REQUEST 8/8 0/14]
r 2.587503004 _14_ MAC  --- 0 ARP 28 [0 ffffffff 8 806] ------- [REQUEST 8/8 0/14]
r 2.587503043 _12_ MAC  --- 0 ARP 28 [0 ffffffff 8 806] ------- [REQUEST 8/8 0/14]
s 2.587572749 _0_ MAC  --- 0 AODV 106 [0 ffffffff 0 800] ------- [0:255 -1:255 27 0] [0x2 4 1 [16 0] [15 4]] (REQUEST)
r 2.588421018 _4_ MAC  --- 0 AODV 48 [0 ffffffff 0 800] ------- [0:255 -1:255 27 0] [0x2 4 1 [16 0] [15 4]] (REQUEST)
r 2.588421060 _12_ MAC  --- 0 AODV 48 [0 ffffffff 0 800] ------- [0:255 -1:255 27 0] [0x2 4 1 [16 0] [15 4]] (REQUEST)
r 2.588421238 _13_ MAC  --- 0 AODV 48 [0 ffffffff 0 800] ------- [0:255 -1:255 27 0] [0x2 4 1 [16 0] [15 4]] (REQUEST)
r 2.588421254 _1_ MAC  --- 0 AODV 48 [0 ffffffff 0 800] ------- [0:255 -1:255 27 0] [0x2 4 1 [16 0] [15 4]] (REQUEST)
r 2.588421280 _9_ MAC  --- 0 AODV 48 [0 ffffffff 0 800] ------- [0:255 -1:255 27 0] [0x2 4 1 [16 0] [15 4]] (REQUEST)
r 2.588421280 _8_ MAC  --- 0 AODV 48 [0 ffffffff 0 800] ------- [0:255 -1:255 27 0] [0x2 4 1 [16 0] [15 4]] (REQUEST)
r 2.588421297 _11_ MAC  --- 0 AODV 48 [0 ffffffff 0 800] ------- [0:255 -1:255 27 0] [0x2 4 1 [16 0] [15 4]] (REQUEST)
r 2.588421428 _10_ MAC  --- 0 AODV 48 [0 ffffffff 0 800] ------- [0:255 -1:255 27 0] [0x2 4 1 [16 0] [15 4]] (REQUEST)
r 2.588421563 _14_ MAC  --- 0 AODV 48 [0 ffffffff 0 800] ------- [0:255 -1:255 27 0] [0x2 4 1 [16 0] [15 4]] (REQUEST)
r 2.588446018 _4_ RTR  --- 0 AODV 48 [0 ffffffff 0 800] ------- [0:255 -1:255 27 0] [0x2 4 1 [16 0] [15 4]] (REQUEST)
r 2.588446060 _12_ RTR  --- 0 AODV 48 [0 ffffffff 0 800] ------- [0:255 -1:255 27 0] [0x2 4 1 [16 0] [15 4]] (REQUEST)
r 2.588446238 _13_ RTR  --- 0 AODV 48 [0 ffffffff 0 800] ------- [0:255 -1:255 27 0] [0x2 4 1 [16 0] [15 4]] (REQUEST)
r 2.588446254 _1_ RTR  --- 0 AODV 48 [0 ffffffff 0 800] ------- [0:255 -1:255 27 0] [0x2 4 1 [16 0] [15 4]] (REQUEST)
r 2.588446280 _9_ RTR  --- 0 AODV 48 [0 ffffffff 0 800] ------- [0:255 -1:255 27 0] [0x2 4 1 [16 0] [15 4]] (REQUEST)
r 2.588446280 _8_ RTR  --- 0 AODV 48 [0 ffffffff 0 800] ------- [0:255 -1:255 27 0] [0x2 4 1 [16 0] [15 4]] (REQUEST)
r 2.588446297 _11_ RTR  --- 0 AODV 48 [0 ffffffff 0 800] ------- [0:255 -1:255 27 0] [0x2 4 1 [16 0] [15 4]] (REQUEST)
r 2.588446428 _10_ RTR  --- 0 AODV 48 [0 ffffffff 0 800] ------- [0:255 -1:255 27 0] [0x2 4 1 [16 0] [15 4]] (REQUEST)
r 2.588446563 _14_ RTR  --- 0 AODV 48 [0 ffffffff 0 800] ------- [0:255 -1:255 27 0] [0x2 4 1 [16 0] [15 4]] (REQUEST)
s 2.588551238 _13_ MAC  --- 0 AODV 106 [0 ffffffff d 800] ------- [13:255 -1:255 28 0] [0x2 3 1 [16 0] [15 4]] (REQUEST)
r 2.589399285 _9_ MAC  --- 0 AODV 48 [0 ffffffff d 800] ------- [13:255 -1:255 28 0] [0x2 3 1 [16 0] [15 4]] (REQUEST)
r 2.589399342 _1_ MAC  --- 0 AODV 48 [0 ffffffff d 800] ------- [13:255 -1:255 28 0] [0x2 3 1 [16 0] [15 4]] (REQUEST)
r 2.589399421 _12_ MAC  --- 0 AODV 48 [0 ffffffff d 800] ------- [13:255 -1:255 28 0] [0x2 3 1 [16 0] [15 4]] (REQUEST)
r 2.589399728 _0_ MAC  --- 0 AODV 48 [0 ffffffff d 800] ------- [13:255 -1:255 28 0] [0x2 3 1 [16 0] [15 4]] (REQUEST)
r 2.589399787 _4_ MAC  --- 0 AODV 48 [0 ffffffff d 800] ------- [13:255 -1:255 28 0] [0x2 3 1 [16 0] [15 4]] (REQUEST)
r 2.589399823 _18_ MAC  --- 0 AODV 48 [0 ffffffff d 800] ------- [13:255 -1:255 28 0] [0x2 3 1 [16 0] [15 4]] (REQUEST)
r 2.589399996 _11_ MAC  --- 0 AODV 48 [0 ffffffff d 800] ------- [13:255 -1:255 28 0] [0x2 3 1 [16 0] [15 4]] (REQUEST)
r 2.589400000 _5_ MAC  --- 0 AODV 48 [0 ffffffff d 800] ------- [13:255 -1:255 28 0] [0x2 3 1 [16 0] [15 4]] (REQUEST)
r 2.589400060 _17_ MAC  --- 0 AODV 48 [0 ffffffff d 800] ------- [13:255 -1:255 28 0] [0x2 3 1 [16 0] [15 4]] (REQUEST)
r 2.589424285 _9_ RTR  --- 0 AODV 48 [0 ffffffff d 800] ------- [13:255 -1:255 28 0] [0x2 3 1 [16 0] [15 4]] (REQUEST)
r 2.589424342 _1_ RTR  --- 0 AODV 48 [0 ffffffff d 800] ------- [13:255 -1:255 28 0] [0x2 3 1 [16 0] [15 4]] (REQUEST)
r 2.589424421 _12_ RTR  --- 0 AODV 48 [0 ffffffff d 800] ------- [13:255 -1:255 28 0] [0x2 3 1 [16 0] [15 4]] (REQUEST)
r 2.589424728 _0_ RTR  --- 0 AODV 48 [0 ffffffff d 800] ------- [13:255 -1:255 28 0] [0x2 3 1 [16 0] [15 4]] (REQUEST)
r 2.589424787 _4_ RTR  --- 0 AODV 48 [0 ffffffff d 800] ------- [13:255 -1:255 28 0] [0x2 3 1 [16 0] [15 4]] (REQUEST)
r 2.589424823 _18_ RTR  --- 0 AODV 48 [0 ffffffff d 800] ------- [13:255 -1:255 28 0] [0x2 3 1 [16 0] [15 4]] (REQUEST)
r 2.589424996 _11_ RTR  --- 0 AODV 48 [0 ffffffff d 800] ------- [13:255 -1:255 28 0] [0x2 3 1 [16 0] [15 4]] (REQUEST)
r 2.589425000 _5_ RTR  --- 0 AODV 48 [0 ffffffff d 800] ------- [13:255 -1:255 28 0] [0x2 3 1 [16 0] [15 4]] (REQUEST)
r 2.589425060 _17_ RTR  --- 0 AODV 48 [0 ffffffff d 800] ------- [13:255 -1:255 28 0] [0x2 3 1 [16 0] [15 4]] (REQUEST)
s 2.589509342 _1_ MAC  --- 0 AODV 106 [0 ffffffff 1 800] ------- [1:255 -1:255 28 0] [0x2 3 1 [16 0] [15 4]] (REQUEST)
s 2.589677331 _11_ RTR  --- 0 AODV 48 [0 ffffffff 0 800] ------- [11:255 -1:255 26 0] [0x2 5 1 [16 0] [15 4]] (REQUEST)
r 2.590357432 _9_ MAC  --- 0 AODV 48 [0 ffffffff 1 800] ------- [1:255 -1:255 28 0] [0x2 3 1 [16 0] [15 4]] (REQUEST)
r 2.590357447 _13_ MAC  --- 0 AODV 48 [0 ffffffff 1 800] ------- [1:255 -1:255 28 0] [0x2 3 1 [16 0] [15 4]] (REQUEST)
r 2.590357541 _12_ MAC  --- 0 AODV 48 [0 ffffffff 1 800] ------- [1:255 -1:255 28 0] [0x2 3 1 [16 0] [15 4]] (REQUEST)
r 2.590357847 _0_ MAC  --- 0 AODV 48 [0 ffffffff 1 800] ------- [1:255 -1:255 28 0] [0x2 3 1 [16 0] [15 4]] (REQUEST)
r 2.590357852 _4_ MAC  --- 0 AODV 48 [0 ffffffff 1 800] ------- [1:255 -1:255 28 0] [0x2 3 1 [16 0] [15 4]] (REQUEST)
r 2.590358015 _18_ MAC  --- 0 AODV 48 [0 ffffffff 1 800] ------- [1:255 -1:255 28 0] [0x2 3 1 [16 0] [15 4]] (REQUEST)
r 2.590358032 _11_ MAC  --- 0 AODV 48 [0 ffffffff 1 800] ------- [1:255 -1:255 28 0] [0x2 3 1 [16 0] [15 4]] (REQUEST)
r 2.590358035 _5_ MAC  --- 0 AODV 48 [0 ffffffff 1 800] ------- [1:255 -1:255 28 0] [0x2 3 1 [16 0] [15 4]] (REQUEST)
r 2.590382432 _9_ RTR  --- 0 AODV 48 [0 ffffffff 1 800] ------- [1:255 -1:255 28 0] [0x2 3 1 [16 0] [15 4]] (REQUEST)
r 2.590382447 _13_ RTR  --- 0 AODV 48 [0 ffffffff 1 800] ------- [1:255 -1:255 28 0] [0x2 3 1 [16 0] [15 4]] (REQUEST)
r 2.590382541 _12_ RTR  --- 0 AODV 48 [0 ffffffff 1 800] ------- [1:255 -1:255 28 0] [0x2 3 1 [16 0] [15 4]] (REQUEST)
r 2.590382847 _0_ RTR  --- 0 AODV 48 [0 ffffffff 1 800] ------- [1:255 -1:255 28 0] [0x2 3 1 [16 0] [15 4]] (REQUEST)
r 2.590382852 _4_ RTR  --- 0 AODV 48 [0 ffffffff 1 800] ------- [1:255 -1:255 28 0] [0x2 3 1 [16 0] [15 4]] (REQUEST)
r 2.590383015 _18_ RTR  --- 0 AODV 48 [0 ffffffff 1 800] ------- [1:255 -1:255 28 0] [0x2 3 1 [16 0] [15 4]] (REQUEST)
r 2.590383032 _11_ RTR  --- 0 AODV 48 [0 ffffffff 1 800] ------- [1:255 -1:255 28 0] [0x2 3 1 [16 0] [15 4]] (REQUEST)
r 2.590383035 _5_ RTR  --- 0 AODV 48 [0 ffffffff 1 800] ------- [1:255 -1:255 28 0] [0x2 3 1 [16 0] [15 4]] (REQUEST)
s 2.590447541 _12_ MAC  --- 0 AODV 106 [0 ffffffff c 800] ------- [12:255 -1:255 28 0] [0x2 3 1 [16 0] [15 4]] (REQUEST)
r 2.591295724 _13_ MAC  --- 0 AODV 48 [0 ffffffff c 800] ------- [12:255 -1:255 28 0] [0x2 3 1 [16 0] [15 4]] (REQUEST)
r 2.591295739 _1_ MAC  --- 0 AODV 48 [0 ffffffff c 800] ------- [12:255 -1:255 28 0] [0x2 3 1 [16 0] [15 4]] (REQUEST)
r 2.591295762 _9_ MAC  --- 0 AODV 48 [0 ffffffff c 800] ------- [12:255 -1:255 28 0] [0x2 3 1 [16 0] [15 4]] (REQUEST)
r 2.591295851 _0_ MAC  --- 0 AODV 48 [0 ffffffff c 800] ------- [12:255 -1:255 28 0] [0x2 3 1 [16 0] [15 4]] (REQUEST)
r 2.591295922 _4_ MAC  --- 0 AODV 48 [0 ffffffff c 800] ------- [12:255 -1:255 28 0] [0x2 3 1 [16 0] [15 4]] (REQUEST)
r 2.591296161 _11_ MAC  --- 0 AODV 48 [0 ffffffff c 800] ------- [12:255 -1:255 28 0] [0x2 3 1 [16 0] [15 4]] (REQUEST)
r 2.591296263 _18_ MAC  --- 0 AODV 48 [0 ffffffff c 800] ------- [12:255 -1:255 28 0] [0x2 3 1 [16 0] [15 4]] (REQUEST)
r 2.591296331 _10_ MAC  --- 0 AODV 48 [0 ffffffff c 800] ------- [12:255 -1:255 28 0] [0x2 3 1 [16 0] [15 4]] (REQUEST)
r 2.591296366 _8_ MAC  --- 0 AODV 48 [0 ffffffff c 800] ------- [12:255 -1:255 28 0] [0x2 3 1 [16 0] [15 4]] (REQUEST)
r 2.591320724 _13_ RTR  --- 0 AODV 48 [0 ffffffff c 800] ------- [12:255 -1:255 28 0] [0x2 3 1 [16 0] [15 4]] (REQUEST)
r 2.591320739 _1_ RTR  --- 0 AODV 48 [0 ffffffff c 800] ------- [12:255 -1:255 28 0] [0x2 3 1 [16 0] [15 4]] (REQUEST)
r 2.591320762 _9_ RTR  --- 0 AODV 48 [0 ffffffff c 800] ------- [12:255 -1:255 28 0] [0x2 3 1 [16 0] [15 4]] (REQUEST)
r 2.591320851 _0_ RTR  --- 0 AODV 48 [0 ffffffff c 800] ------- [12:255 -1:255 28 0] [0x2 3 1 [16 0] [15 4]] (REQUEST)
r 2.591320922 _4_ RTR  --- 0 AODV 48 [0 ffffffff c 800] ------- [12:255 -1:255 28 0] [0x2 3 1 [16 0] [15 4]] (REQUEST)
r 2.591321161 _11_ RTR  --- 0 AODV 48 [0 ffffffff c 800] ------- [12:255 -1:255 28 0] [0x2 3 1 [16 0] [15 4]] (REQUEST)
r 2.591321263 _18_ RTR  --- 0 AODV 48 [0 ffffffff c 800] ------- [12:255 -1:255 28 0] [0x2 3 1 [16 0] [15 4]] (REQUEST)
r 2.591321331 _10_ RTR  --- 0 AODV 48 [0 ffffffff c 800] ------- [12:255 -1:255 28 0] [0x2 3 1 [16 0] [15 4]] (REQUEST)
r 2.591321366 _8_ RTR  --- 0 AODV 48 [0 ffffffff c 800] ------- [12:255 -1:255 28 0] [0x2 3 1 [16 0] [15 4]] (REQUEST)
s 2.591525762 _9_ MAC  --- 0 AODV 106 [0 ffffffff 9 800] ------- [9:255 -1:255 28 0] [0x2 3 1 [16 0] [15 4]] (REQUEST)
s 2.591802645 _4_ RTR  --- 0 AODV 48 [0 ffffffff 0 800] ------- [4:255 -1:255 26 0] [0x2 5 1 [16 0] [15 4]] (REQUEST)
s 2.591994938 _5_ RTR  --- 0 AODV 48 [0 ffffffff d 800] ------- [5:255 -1:255 27 0] [0x2 4 1 [16 0] [15 4]] (REQUEST)
r 2.592373809 _13_ MAC  --- 0 AODV 48 [0 ffffffff 9 800] ------- [9:255 -1:255 28 0] [0x2 3 1 [16 0] [15 4]] (REQUEST)
r 2.592373852 _1_ MAC  --- 0 AODV 48 [0 ffffffff 9 800] ------- [9:255 -1:255 28 0] [0x2 3 1 [16 0] [15 4]] (REQUEST)
r 2.592373984 _12_ MAC  --- 0 AODV 48 [0 ffffffff 9 800] ------- [9:255 -1:255 28 0] [0x2 3 1 [16 0] [15 4]] (REQUEST)
r 2.592374293 _0_ MAC  --- 0 AODV 48 [0 ffffffff 9 800] ------- [9:255 -1:255 28 0] [0x2 3 1 [16 0] [15 4]] (REQUEST)
r 2.592374337 _4_ MAC  --- 0 AODV 48 [0 ffffffff 9 800] ------- [9:255 -1:255 28 0] [0x2 3 1 [16 0] [15 4]] (REQUEST)
r 2.592374345 _18_ MAC  --- 0 AODV 48 [0 ffffffff 9 800] ------- [9:255 -1:255 28 0] [0x2 3 1 [16 0] [15 4]] (REQUEST)
r 2.592374479 _5_ MAC  --- 0 AODV 48 [0 ffffffff 9 800] ------- [9:255 -1:255 28 0] [0x2 3 1 [16 0] [15 4]] (REQUEST)
r 2.592374534 _11_ MAC  --- 0 AODV 48 [0 ffffffff 9 800] ------- [9:255 -1:255 28 0] [0x2 3 1 [16 0] [15 4]] (REQUEST)
r 2.592374565 _17_ MAC  --- 0 AODV 48 [0 ffffffff 9 800] ------- [9:255 -1:255 28 0] [0x2 3 1 [16 0] [15 4]] (REQUEST)
r 2.592398809 _13_ RTR  --- 0 AODV 48 [0 ffffffff 9 800] ------- [9:255 -1:255 28 0] [0x2 3 1 [16 0] [15 4]] (REQUEST)
r 2.592398852 _1_ RTR  --- 0 AODV 48 [0 ffffffff 9 800] ------- [9:255 -1:255 28 0] [0x2 3 1 [16 0] [15 4]] (REQUEST)
r 2.592398984 _12_ RTR  --- 0 AODV 48 [0 ffffffff 9 800] ------- [9:255 -1:255 28 0] [0x2 3 1 [16 0] [15 4]] (REQUEST)
r 2.592399293 _0_ RTR  --- 0 AODV 48 [0 ffffffff 9 800] ------- [9:255 -1:255 28 0] [0x2 3 1 [16 0] [15 4]] (REQUEST)
r 2.592399337 _4_ RTR  --- 0 AODV 48 [0 ffffffff 9 800] ------- [9:255 -1:255 28 0] [0x2 3 1 [16 0] [15 4]] (REQUEST)
r 2.592399345 _18_ RTR  --- 0 AODV 48 [0 ffffffff 9 800] ------- [9:255 -1:255 28 0] [0x2 3 1 [16 0] [15 4]] (REQUEST)
r 2.592399479 _5_ RTR  --- 0 AODV 48 [0 ffffffff 9 800] ------- [9:255 -1:255 28 0] [0x2 3 1 [16 0] [15 4]] (REQUEST)
r 2.592399534 _11_ RTR  --- 0 AODV 48 [0 ffffffff 9 800] ------- [9:255 -1:255 28 0] [0x2 3 1 [16 0] [15 4]] (REQUEST)
r 2.592399565 _17_ RTR  --- 0 AODV 48 [0 ffffffff 9 800] ------- [9:255 -1:255 28 0] [0x2 3 1 [16 0] [15 4]] (REQUEST)
s 2.592584479 _5_ MAC  --- 0 AODV 106 [0 ffffffff 5 800] ------- [5:255 -1:255 27 0] [0x2 4 1 [16 0] [15 4]] (REQUEST)
s 2.593188999 _14_ MAC  --- 0 RTS 44 [52e 8 e 0] 
D 2.593190190 _13_ MAC  COL 0 AODV 106 [0 ffffffff 5 800] ------- [5:255 -1:255 27 0] [0x2 4 1 [16 0] [15 4]] (REQUEST)
D 2.593190236 _9_ MAC  COL 0 AODV 106 [0 ffffffff 5 800] ------- [5:255 -1:255 27 0] [0x2 4 1 [16 0] [15 4]] (REQUEST)
r 2.593432937 _7_ MAC  --- 0 AODV 48 [0 ffffffff 5 800] ------- [5:255 -1:255 27 0] [0x2 4 1 [16 0] [15 4]] (REQUEST)
r 2.593432939 _2_ MAC  --- 0 AODV 48 [0 ffffffff 5 800] ------- [5:255 -1:255 27 0] [0x2 4 1 [16 0] [15 4]] (REQUEST)
r 2.593433156 _29_ MAC  --- 0 AODV 48 [0 ffffffff 5 800] ------- [5:255 -1:255 27 0] [0x2 4 1 [16 0] [15 4]] (REQUEST)
r 2.593433156 _28_ MAC  --- 0 AODV 48 [0 ffffffff 5 800] ------- [5:255 -1:255 27 0] [0x2 4 1 [16 0] [15 4]] (REQUEST)
r 2.593433156 _27_ MAC  --- 0 AODV 48 [0 ffffffff 5 800] ------- [5:255 -1:255 27 0] [0x2 4 1 [16 0] [15 4]] (REQUEST)
r 2.593433156 _26_ MAC  --- 0 AODV 48 [0 ffffffff 5 800] ------- [5:255 -1:255 27 0] [0x2 4 1 [16 0] [15 4]] (REQUEST)
r 2.593433156 _25_ MAC  --- 0 AODV 48 [0 ffffffff 5 800] ------- [5:255 -1:255 27 0] [0x2 4 1 [16 0] [15 4]] (REQUEST)
r 2.593433156 _24_ MAC  --- 0 AODV 48 [0 ffffffff 5 800] ------- [5:255 -1:255 27 0] [0x2 4 1 [16 0] [15 4]] (REQUEST)
r 2.593433156 _23_ MAC  --- 0 AODV 48 [0 ffffffff 5 800] ------- [5:255 -1:255 27 0] [0x2 4 1 [16 0] [15 4]] (REQUEST)