n -t * -s 0  -x 170.22999999999999 -y 301.64999999999998 -Z 0 -z 100  -v circle -c black
n -t * -s 1  -x 138.78999999999999 -y 301.64999999999998 -Z 0 -z 100  -v circle -c black
n -t * -s 2  -x 148.34999999999999 -y 139.12 -Z 0 -z 100  -v circle -c black
n -t * -s 3  -x 259.44 -y 148.34999999999999 -Z 0 -z 100  -v circle -c black
n -t * -s 4  -x 107.69 -y 301.64999999999998 -Z 0 -z 100  -v circle -c black
n -t * -s 5  -x 227.59 -y 298.35000000000002 -Z 0 -z 100  -v circle -c black
n -t * -s 6  -x 1.6499999999999999 -y 80.540000000000006 -Z 0 -z 100  -v circle -c black
n -t * -s 7  -x 151.65000000000001 -y 101 -Z 0 -z 100  -v circle -c black
n -t * -s 8  -x 64.079999999999998 -y 1.6499999999999999 -Z 0 -z 100  -v circle -c black
n -t * -s 9  -x 151.65000000000001 -y 47.990000000000002 -Z 0 -z 100  -v circle -c black
V -t * -v 1.0a5 -a 0
W -t * -x 500 -y 500
A -t * -n 1 -p 0 -o 0x7fffffff -c 30 -a 1
A -t * -h 1 -m 1073741823 -s 0
n -t 0.000000 -s 0 -x 170.230000 -y 301.650000 -U 0.000000 -V 0.000000 -T 0.000000
n -t 0 -s 0 -S COLOR -c green -o green -i green -I green
n -t 0 -s 0 -S DLABEL -l "Source" -L ""
n -t 0 -s 8 -S COLOR -c blue -o blue -i blue -I blue
n -t 0 -s 8 -S DLABEL -l "Destination" -L ""
n -t 1.000000 -s 0 -x 170.230000 -y 301.650000 -U -10.460000 -V 0.000000 -T 1.000000
n -t 1.000000 -s 1 -x 138.790000 -y 301.650000 -U 0.000000 -V 0.000000 -T 0.000000
n -t 2.000000 -s 0 -x 159.770000 -y 301.650000 -U -6.705686 -V -0.240563 -T 0.997661
n -t 2.000000 -s 1 -x 138.790000 -y 301.650000 -U -19.230000 -V 0.000000 -T 1.000000
n -t 2.000000 -s 2 -x 148.350000 -y 139.120000 -U 0.000000 -V 0.000000 -T 0.000000
+ -t 2.556838879 -s 0 -d -1 -p cbr -e 512 -c 2 -a 0 -i 0 -k AGT 
- -t 2.556838879 -s 0 -d -1 -p cbr -e 512 -c 2 -a 0 -i 0 -k AGT
h -t 2.556838879 -s 0 -d -1 -p cbr -e 512 -c 2 -a 0 -i 0 -k AGT
+ -t 2.556838879 -s 0 -d -1 -p AODV -e 48 -c 2 -a 0 -i 0 -k RTR 
- -t 2.556838879 -s 0 -d -1 -p AODV -e 48 -c 2 -a 0 -i 0 -k RTR
h -t 2.556838879 -s 0 -d -1 -p AODV -e 48 -c 2 -a 0 -i 0 -k RTR
+ -t 2.556953879 -s 0 -d -1 -p AODV -e 106 -c 2 -a 0 -i 0 -k MAC 
- -t 2.556953879 -s 0 -d -1 -p AODV -e 106 -c 2 -a 0 -i 0 -k MAC
h -t 2.556953879 -s 0 -d -1 -p AODV -e 106 -c 2 -a 0 -i 0 -k MAC
r -t 2.557801972 -s 1 -d -1 -p AODV -e 48 -c 2 -a 0 -i 0 -k MAC
r -t 2.557802040 -s 4 -d -1 -p AODV -e 48 -c 2 -a 0 -i 0 -k MAC
r -t 2.557802117 -s 5 -d -1 -p AODV -e 48 -c 2 -a 0 -i 0 -k MAC
r -t 2.557802421 -s 2 -d -1 -p AODV -e 48 -c 2 -a 0 -i 0 -k MAC
r -t 2.557802495 -s 3 -d -1 -p AODV -e 48 -c 2 -a 0 -i 0 -k MAC
r -t 2.557802547 -s 7 -d -1 -p AODV -e 48 -c 2 -a 0 -i 0 -k MAC
r -t 2.557826972 -s 1 -d -1 -p AODV -e 48 -c 2 -a 0 -i 0 -k RTR
r -t 2.557827040 -s 4 -d -1 -p AODV -e 48 -c 2 -a 0 -i 0 -k RTR
r -t 2.557827117 -s 5 -d -1 -p AODV -e 48 -c 2 -a 0 -i 0 -k RTR
r -t 2.557827421 -s 2 -d -1 -p AODV -e 48 -c 2 -a 0 -i 0 -k RTR
r -t 2.557827495 -s 3 -d -1 -p AODV -e 48 -c 2 -a 0 -i 0 -k RTR
r -t 2.557827547 -s 7 -d -1 -p AODV -e 48 -c 2 -a 0 -i 0 -k RTR
+ -t 2.558708199 -s 1 -d -1 -p AODV -e 48 -c 2 -a 0 -i 0 -k RTR 
- -t 2.558708199 -s 1 -d -1 -p AODV -e 48 -c 2 -a 0 -i 0 -k RTR
h -t 2.558708199 -s 1 -d -1 -p AODV -e 48 -c 2 -a 0 -i 0 -k RTR
+ -t 2.559143199 -s 1 -d -1 -p AODV -e 106 -c 2 -a 0 -i 0 -k MAC 
- -t 2.559143199 -s 1 -d -1 -p AODV -e 106 -c 2 -a 0 -i 0 -k MAC
h -t 2.559143199 -s 1 -d -1 -p AODV -e 106 -c 2 -a 0 -i 0 -k MAC
r -t 2.559991266 -s 4 -d -1 -p AODV -e 48 -c 2 -a 0 -i 0 -k MAC
r -t 2.559991292 -s 0 -d -1 -p AODV -e 48 -c 2 -a 0 -i 0 -k MAC
r -t 2.559991531 -s 5 -d -1 -p AODV -e 48 -c 2 -a 0 -i 0 -k MAC
r -t 2.559991745 -s 2 -d -1 -p AODV -e 48 -c 2 -a 0 -i 0 -k MAC
r -t 2.559991872 -s 3 -d -1 -p AODV -e 48 -c 2 -a 0 -i 0 -k MAC
r -t 2.559991872 -s 7 -d -1 -p AODV -e 48 -c 2 -a 0 -i 0 -k MAC
r -t 2.560016266 -s 4 -d -1 -p AODV -e 48 -c 2 -a 0 -i 0 -k RTR
r -t 2.560016292 -s 0 -d -1 -p AODV -e 48 -c 2 -a 0 -i 0 -k RTR
r -t 2.560016531 -s 5 -d -1 -p AODV -e 48 -c 2 -a 0 -i 0 -k RTR
r -t 2.560016745 -s 2 -d -1 -p AODV -e 48 -c 2 -a 0 -i 0 -k RTR
r -t 2.560016872 -s 3 -d -1 -p AODV -e 48 -c 2 -a 0 -i 0 -k RTR
r -t 2.560016872 -s 7 -d -1 -p AODV -e 48 -c 2 -a 0 -i 0 -k RTR
+ -t 2.560173565 -s 7 -d -1 -p AODV -e 48 -c 2 -a 0 -i 0 -k RTR 
- -t 2.560173565 -s 7 -d -1 -p AODV -e 48 -c 2 -a 0 -i 0 -k RTR
h -t 2.560173565 -s 7 -d -1 -p AODV -e 48 -c 2 -a 0 -i 0 -k RTR
+ -t 2.560488565 -s 7 -d -1 -p AODV -e 106 -c 2 -a 0 -i 0 -k MAC 
- -t 2.560488565 -s 7 -d -1 -p AODV -e 106 -c 2 -a 0 -i 0 -k MAC
h -t 2.560488565 -s 7 -d -1 -p AODV -e 106 -c 2 -a 0 -i 0 -k MAC
+ -t 2.560957038 -s 2 -d -1 -p AODV -e 48 -c 2 -a 0 -i 0 -k RTR 
- -t 2.560957038 -s 2 -d -1 -p AODV -e 48 -c 2 -a 0 -i 0 -k RTR
h -t 2.560957038 -s 2 -d -1 -p AODV -e 48 -c 2 -a 0 -i 0 -k RTR
r -t 2.561336692 -s 2 -d -1 -p AODV -e 48 -c 2 -a 0 -i 0 -k MAC
r -t 2.561336741 -s 9 -d -1 -p AODV -e 48 -c 2 -a 0 -i 0 -k MAC
r -t 2.561336957 -s 3 -d -1 -p AODV -e 48 -c 2 -a 0 -i 0 -k MAC
r -t 2.561337006 -s 8 -d -1 -p AODV -e 48 -c 2 -a 0 -i 0 -k MAC
r -t 2.561337069 -s 6 -d -1 -p AODV -e 48 -c 2 -a 0 -i 0 -k MAC
r -t 2.561337233 -s 0 -d -1 -p AODV -e 48 -c 2 -a 0 -i 0 -k MAC
r -t 2.561337238 -s 1 -d -1 -p AODV -e 48 -c 2 -a 0 -i 0 -k MAC
r -t 2.561337249 -s 4 -d -1 -p AODV -e 48 -c 2 -a 0 -i 0 -k MAC
r -t 2.561337270 -s 5 -d -1 -p AODV -e 48 -c 2 -a 0 -i 0 -k MAC
r -t 2.561361692 -s 2 -d -1 -p AODV -e 48 -c 2 -a 0 -i 0 -k RTR
r -t 2.561361741 -s 9 -d -1 -p AODV -e 48 -c 2 -a 0 -i 0 -k RTR
r -t 2.561361957 -s 3 -d -1 -p AODV -e 48 -c 2 -a 0 -i 0 -k RTR
r -t 2.561362006 -s 8 -d -1 -p AODV -e 48 -c 2 -a 0 -i 0 -k RTR
+ -t 2.561362006 -s 8 -d 7 -p AODV -e 44 -c 2 -a 0 -i 0 -k RTR 
- -t 2.561362006 -s 8 -d 7 -p AODV -e 44 -c 2 -a 0 -i 0 -k RTR
h -t 2.561362006 -s 8 -d 7 -p AODV -e 44 -c 2 -a 0 -i 0 -k RTR
r -t 2.561362069 -s 6 -d -1 -p AODV -e 48 -c 2 -a 0 -i 0 -k RTR
r -t 2.561362233 -s 0 -d -1 -p AODV -e 48 -c 2 -a 0 -i 0 -k RTR
r -t 2.561362238 -s 1 -d -1 -p AODV -e 48 -c 2 -a 0 -i 0 -k RTR
r -t 2.561362249 -s 4 -d -1 -p AODV -e 48 -c 2 -a 0 -i 0 -k RTR
r -t 2.561362270 -s 5 -d -1 -p AODV -e 48 -c 2 -a 0 -i 0 -k RTR
+ -t 2.561426692 -s 2 -d -1 -p AODV -e 106 -c 2 -a 0 -i 0 -k MAC 
- -t 2.561426692 -s 2 -d -1 -p AODV -e 106 -c 2 -a 0 -i 0 -k MAC
h -t 2.561426692 -s 2 -d -1 -p AODV -e 106 -c 2 -a 0 -i 0 -k MAC
+ -t 2.562238774 -s 4 -d -1 -p AODV -e 48 -c 2 -a 0 -i 0 -k RTR 
- -t 2.562238774 -s 4 -d -1 -p AODV -e 48 -c 2 -a 0 -i 0 -k RTR
h -t 2.562238774 -s 4 -d -1 -p AODV -e 48 -c 2 -a 0 -i 0 -k RTR
r -t 2.562274820 -s 7 -d -1 -p AODV -e 48 -c 2 -a 0 -i 0 -k MAC
r -t 2.562274996 -s 9 -d -1 -p AODV -e 48 -c 2 -a 0 -i 0 -k MAC
r -t 2.562275064 -s 3 -d -1 -p AODV -e 48 -c 2 -a 0 -i 0 -k MAC
r -t 2.562275219 -s 6 -d -1 -p AODV -e 48 -c 2 -a 0 -i 0 -k MAC
r -t 2.562275230 -s 8 -d -1 -p AODV -e 48 -c 2 -a 0 -i 0 -k MAC
r -t 2.562275234 -s 0 -d -1 -p AODV -e 48 -c 2 -a 0 -i 0 -k MAC
r -t 2.562275238 -s 1 -d -1 -p AODV -e 48 -c 2 -a 0 -i 0 -k MAC
r -t 2.562275251 -s 4 -d -1 -p AODV -e 48 -c 2 -a 0 -i 0 -k MAC
r -t 2.562275285 -s 5 -d -1 -p AODV -e 48 -c 2 -a 0 -i 0 -k MAC
r -t 2.562299820 -s 7 -d -1 -p AODV -e 48 -c 2 -a 0 -i 0 -k RTR
r -t 2.562299996 -s 9 -d -1 -p AODV -e 48 -c 2 -a 0 -i 0 -k RTR
r -t 2.562300064 -s 3 -d -1 -p AODV -e 48 -c 2 -a 0 -i 0 -k RTR
r -t 2.562300219 -s 6 -d -1 -p AODV -e 48 -c 2 -a 0 -i 0 -k RTR
r -t 2.562300230 -s 8 -d -1 -p AODV -e 48 -c 2 -a 0 -i 0 -k RTR
r -t 2.562300234 -s 0 -d -1 -p AODV -e 48 -c 2 -a 0 -i 0 -k RTR
r -t 2.562300238 -s 1 -d -1 -p AODV -e 48 -c 2 -a 0 -i 0 -k RTR
r -t 2.562300251 -s 4 -d -1 -p AODV -e 48 -c 2 -a 0 -i 0 -k RTR
r -t 2.562300285 -s 5 -d -1 -p AODV -e 48 -c 2 -a 0 -i 0 -k RTR
+ -t 2.562485251 -s 4 -d -1 -p AODV -e 106 -c 2 -a 0 -i 0 -k MAC 
- -t 2.562485251 -s 4 -d -1 -p AODV -e 106 -c 2 -a 0 -i 0 -k MAC
h -t 2.562485251 -s 4 -d -1 -p AODV -e 106 -c 2 -a 0 -i 0 -k MAC
+ -t 2.562500152 -s 6 -d -1 -p AODV -e 48 -c 2 -a 0 -i 0 -k RTR 
- -t 2.562500152 -s 6 -d -1 -p AODV -e 48 -c 2 -a 0 -i 0 -k RTR
h -t 2.562500152 -s 6 -d -1 -p AODV -e 48 -c 2 -a 0 -i 0 -k RTR
r -t 2.563333318 -s 1 -d -1 -p AODV -e 48 -c 2 -a 0 -i 0 -k MAC
r -t 2.563333412 -s 0 -d -1 -p AODV -e 48 -c 2 -a 0 -i 0 -k MAC
r -t 2.563333651 -s 5 -d -1 -p AODV -e 48 -c 2 -a 0 -i 0 -k MAC
r -t 2.563333809 -s 2 -d -1 -p AODV -e 48 -c 2 -a 0 -i 0 -k MAC
r -t 2.563333935 -s 7 -d -1 -p AODV -e 48 -c 2 -a 0 -i 0 -k MAC
r -t 2.563333970 -s 3 -d -1 -p AODV -e 48 -c 2 -a 0 -i 0 -k MAC
r -t 2.563334068 -s 6 -d -1 -p AODV -e 48 -c 2 -a 0 -i 0 -k MAC
r -t 2.563358318 -s 1 -d -1 -p AODV -e 48 -c 2 -a 0 -i 0 -k RTR
r -t 2.563358412 -s 0 -d -1 -p AODV -e 48 -c 2 -a 0 -i 0 -k RTR
r -t 2.563358651 -s 5 -d -1 -p AODV -e 48 -c 2 -a 0 -i 0 -k RTR
r -t 2.563358809 -s 2 -d -1 -p AODV -e 48 -c 2 -a 0 -i 0 -k RTR
r -t 2.563358935 -s 7 -d -1 -p AODV -e 48 -c 2 -a 0 -i 0 -k RTR
r -t 2.563358970 -s 3 -d -1 -p AODV -e 48 -c 2 -a 0 -i 0 -k RTR
r -t 2.563359068 -s 6 -d -1 -p AODV -e 48 -c 2 -a 0 -i 0 -k RTR
+ -t 2.563724068 -s 6 -d -1 -p AODV -e 106 -c 2 -a 0 -i 0 -k MAC 
- -t 2.563724068 -s 6 -d -1 -p AODV -e 106 -c 2 -a 0 -i 0 -k MAC
h -t 2.563724068 -s 6 -d -1 -p AODV -e 106 -c 2 -a 0 -i 0 -k MAC
r -t 2.564572404 -s 8 -d -1 -p AODV -e 48 -c 2 -a 0 -i 0 -k MAC
r -t 2.564572573 -s 7 -d -1 -p AODV -e 48 -c 2 -a 0 -i 0 -k MAC
r -t 2.564572580 -s 9 -d -1 -p AODV -e 48 -c 2 -a 0 -i 0 -k MAC
r -t 2.564572595 -s 2 -d -1 -p AODV -e 48 -c 2 -a 0 -i 0 -k MAC
r -t 2.564572886 -s 4 -d -1 -p AODV -e 48 -c 2 -a 0 -i 0 -k MAC
r -t 2.564597404 -s 8 -d -1 -p AODV -e 48 -c 2 -a 0 -i 0 -k RTR
r -t 2.564597573 -s 7 -d -1 -p AODV -e 48 -c 2 -a 0 -i 0 -k RTR
r -t 2.564597580 -s 9 -d -1 -p AODV -e 48 -c 2 -a 0 -i 0 -k RTR
r -t 2.564597595 -s 2 -d -1 -p AODV -e 48 -c 2 -a 0 -i 0 -k RTR
r -t 2.564597886 -s 4 -d -1 -p AODV -e 48 -c 2 -a 0 -i 0 -k RTR
+ -t 2.564702404 -s 8 -d -1 -p ARP -e 86 -c 2 -a 0 -i 0 -k MAC 
- -t 2.564702404 -s 8 -d -1 -p ARP -e 86 -c 2 -a 0 -i 0 -k MAC
h -t 2.564702404 -s 8 -d -1 -p ARP -e 86 -c 2 -a 0 -i 0 -k MAC
r -t 2.565390734 -s 9 -d -1 -p ARP -e 28 -c 2 -a 0 -i 0 -k MAC
r -t 2.565390739 -s 6 -d -1 -p ARP -e 28 -c 2 -a 0 -i 0 -k MAC
r -t 2.565390845 -s 7 -d -1 -p ARP -e 28 -c 2 -a 0 -i 0 -k MAC
r -t 2.565390941 -s 2 -d -1 -p ARP -e 28 -c 2 -a 0 -i 0 -k MAC
r -t 2.565391218 -s 3 -d -1 -p ARP -e 28 -c 2 -a 0 -i 0 -k MAC
+ -t 2.565465845 -s 7 -d -1 -p RTS -e 44 -c 2 -a 0 -i 0 -k MAC 
- -t 2.565465845 -s 7 -d -1 -p RTS -e 44 -c 2 -a 0 -i 0 -k MAC
h -t 2.565465845 -s 7 -d -1 -p RTS -e 44 -c 2 -a 0 -i 0 -k MAC
r -t 2.565818286 -s 8 -d -1 -p RTS -e 44 -c 2 -a 0 -i 0 -k MAC
+ -t 2.565818672 -s 5 -d -1 -p AODV -e 48 -c 2 -a 0 -i 0 -k RTR 
- -t 2.565818672 -s 5 -d -1 -p AODV -e 48 -c 2 -a 0 -i 0 -k RTR
h -t 2.565818672 -s 5 -d -1 -p AODV -e 48 -c 2 -a 0 -i 0 -k RTR
+ -t 2.565828286 -s 8 -d -1 -p CTS -e 38 -c 2 -a 0 -i 0 -k MAC 
- -t 2.565828286 -s 8 -d -1 -p CTS -e 38 -c 2 -a 0 -i 0 -k MAC
h -t 2.565828286 -s 8 -d -1 -p CTS -e 38 -c 2 -a 0 -i 0 -k MAC
+ -t 2.565992255 -s 3 -d -1 -p AODV -e 48 -c 2 -a 0 -i 0 -k RTR 
- -t 2.565992255 -s 3 -d -1 -p AODV -e 48 -c 2 -a 0 -i 0 -k RTR
h -t 2.565992255 -s 3 -d -1 -p AODV -e 48 -c 2 -a 0 -i 0 -k RTR
r -t 2.566132728 -s 7 -d -1 -p CTS -e 38 -c 2 -a 0 -i 0 -k MAC
+ -t 2.566142728 -s 7 -d -1 -p ARP -e 86 -c 2 -a 0 -i 0 -k MAC 
- -t 2.566142728 -s 7 -d -1 -p ARP -e 86 -c 2 -a 0 -i 0 -k MAC
h -t 2.566142728 -s 7 -d -1 -p ARP -e 86 -c 2 -a 0 -i 0 -k MAC
r -t 2.566831169 -s 8 -d -1 -p ARP -e 28 -c 2 -a 0 -i 0 -k MAC
+ -t 2.566841169 -s 8 -d -1 -p ACK -e 38 -c 2 -a 0 -i 0 -k MAC 
- -t 2.566841169 -s 8 -d -1 -p ACK -e 38 -c 2 -a 0 -i 0 -k MAC
h -t 2.566841169 -s 8 -d -1 -p ACK -e 38 -c 2 -a 0 -i 0 -k MAC
r -t 2.567145611 -s 7 -d -1 -p ACK -e 38 -c 2 -a 0 -i 0 -k MAC
+ -t 2.567395169 -s 8 -d -1 -p RTS -e 44 -c 2 -a 0 -i 0 -k MAC 
- -t 2.567395169 -s 8 -d -1 -p RTS -e 44 -c 2 -a 0 -i 0 -k MAC
h -t 2.567395169 -s 8 -d -1 -p RTS -e 44 -c 2 -a 0 -i 0 -k MAC
r -t 2.567747611 -s 7 -d -1 -p RTS -e 44 -c 2 -a 0 -i 0 -k MAC
+ -t 2.567757611 -s 7 -d -1 -p CTS -e 38 -c 2 -a 0 -i 0 -k MAC 
- -t 2.567757611 -s 7 -d -1 -p CTS -e 38 -c 2 -a 0 -i 0 -k MAC
h -t 2.567757611 -s 7 -d -1 -p CTS -e 38 -c 2 -a 0 -i 0 -k MAC
+ -t 2.567762418 -s 9 -d -1 -p AODV -e 48 -c 2 -a 0 -i 0 -k RTR 
- -t 2.567762418 -s 9 -d -1 -p AODV -e 48 -c 2 -a 0 -i 0 -k RTR
h -t 2.567762418 -s 9 -d -1 -p AODV -e 48 -c 2 -a 0 -i 0 -k RTR
r -t 2.568062052 -s 8 -d -1 -p CTS -e 38 -c 2 -a 0 -i 0 -k MAC
+ -t 2.568072052 -s 8 -d 7 -p AODV -e 102 -c 2 -a 0 -i 0 -k MAC 
- -t 2.568072052 -s 8 -d 7 -p AODV -e 102 -c 2 -a 0 -i 0 -k MAC
h -t 2.568072052 -s 8 -d 7 -p AODV -e 102 -c 2 -a 0 -i 0 -k MAC
r -t 2.568888494 -s 7 -d 7 -p AODV -e 44 -c 2 -a 0 -i 0 -k MAC
+ -t 2.568898494 -s 7 -d -1 -p ACK -e 38 -c 2 -a 0 -i 0 -k MAC 
- -t 2.568898494 -s 7 -d -1 -p ACK -e 38 -c 2 -a 0 -i 0 -k MAC
h -t 2.568898494 -s 7 -d -1 -p ACK -e 38 -c 2 -a 0 -i 0 -k MAC
+ -t 2.568913494 -s 7 -d 0 -p AODV -e 44 -c 2 -a 0 -i 0 -k RTR 
- -t 2.568913494 -s 7 -d 0 -p AODV -e 44 -c 2 -a 0 -i 0 -k RTR
h -t 2.568913494 -s 7 -d 0 -p AODV -e 44 -c 2 -a 0 -i 0 -k RTR
r -t 2.569202935 -s 8 -d -1 -p ACK -e 38 -c 2 -a 0 -i 0 -k MAC
+ -t 2.569512886 -s 3 -d -1 -p AODV -e 106 -c 2 -a 0 -i 0 -k MAC 
- -t 2.569512886 -s 3 -d -1 -p AODV -e 106 -c 2 -a 0 -i 0 -k MAC
h -t 2.569512886 -s 3 -d -1 -p AODV -e 106 -c 2 -a 0 -i 0 -k MAC
r -t 2.570361258 -s 2 -d -1 -p AODV -e 48 -c 2 -a 0 -i 0 -k MAC
r -t 2.570361279 -s 7 -d -1 -p AODV -e 48 -c 2 -a 0 -i 0 -k MAC
r -t 2.570361377 -s 9 -d -1 -p AODV -e 48 -c 2 -a 0 -i 0 -k MAC
r -t 2.570361397 -s 5 -d -1 -p AODV -e 48 -c 2 -a 0 -i 0 -k MAC
r -t 2.570361502 -s 0 -d -1 -p AODV -e 48 -c 2 -a 0 -i 0 -k MAC
r -t 2.570361560 -s 1 -d -1 -p AODV -e 48 -c 2 -a 0 -i 0 -k MAC
r -t 2.570361605 -s 4 -d -1 -p AODV -e 48 -c 2 -a 0 -i 0 -k MAC
r -t 2.570361700 -s 8 -d -1 -p AODV -e 48 -c 2 -a 0 -i 0 -k MAC
r -t 2.570386258 -s 2 -d -1 -p AODV -e 48 -c 2 -a 0 -i 0 -k RTR
r -t 2.570386279 -s 7 -d -1 -p AODV -e 48 -c 2 -a 0 -i 0 -k RTR
r -t 2.570386377 -s 9 -d -1 -p AODV -e 48 -c 2 -a 0 -i 0 -k RTR
r -t 2.570386397 -s 5 -d -1 -p AODV -e 48 -c 2 -a 0 -i 0 -k RTR
r -t 2.570386502 -s 0 -d -1 -p AODV -e 48 -c 2 -a 0 -i 0 -k RTR
r -t 2.570386560 -s 1 -d -1 -p AODV -e 48 -c 2 -a 0 -i 0 -k RTR
r -t 2.570386605 -s 4 -d -1 -p AODV -e 48 -c 2 -a 0 -i 0 -k RTR
r -t 2.570386700 -s 8 -d -1 -p AODV -e 48 -c 2 -a 0 -i 0 -k RTR
+ -t 2.570451397 -s 5 -d -1 -p AODV -e 106 -c 2 -a 0 -i 0 -k MAC 
- -t 2.570451397 -s 5 -d -1 -p AODV -e 106 -c 2 -a 0 -i 0 -k MAC
h -t 2.570451397 -s 5 -d -1 -p AODV -e 106 -c 2 -a 0 -i 0 -k MAC
r -t 2.571299636 -s 0 -d -1 -p AODV -e 48 -c 2 -a 0 -i 0 -k MAC
r -t 2.571299730 -s 1 -d -1 -p AODV -e 48 -c 2 -a 0 -i 0 -k MAC
r -t 2.571299797 -s 4 -d -1 -p AODV -e 48 -c 2 -a 0 -i 0 -k MAC
r -t 2.571299908 -s 3 -d -1 -p AODV -e 48 -c 2 -a 0 -i 0 -k MAC
r -t 2.571299990 -s 2 -d -1 -p AODV -e 48 -c 2 -a 0 -i 0 -k MAC
r -t 2.571300102 -s 7 -d -1 -p AODV -e 48 -c 2 -a 0 -i 0 -k MAC
r -t 2.571324636 -s 0 -d -1 -p AODV -e 48 -c 2 -a 0 -i 0 -k RTR
r -t 2.571324730 -s 1 -d -1 -p AODV -e 48 -c 2 -a 0 -i 0 -k RTR
r -t 2.571324797 -s 4 -d -1 -p AODV -e 48 -c 2 -a 0 -i 0 -k RTR
r -t 2.571324908 -s 3 -d -1 -p AODV -e 48 -c 2 -a 0 -i 0 -k RTR
r -t 2.571324990 -s 2 -d -1 -p AODV -e 48 -c 2 -a 0 -i 0 -k RTR
r -t 2.571325102 -s 7 -d -1 -p AODV -e 48 -c 2 -a 0 -i 0 -k RTR
+ -t 2.571450102 -s 7 -d -1 -p ARP -e 86 -c 2 -a 0 -i 0 -k MAC 
- -t 2.571450102 -s 7 -d -1 -p ARP -e 86 -c 2 -a 0 -i 0 -k MAC
h -t 2.571450102 -s 7 -d -1 -p ARP -e 86 -c 2 -a 0 -i 0 -k MAC
r -t 2.572138230 -s 2 -d -1 -p ARP -e 28 -c 2 -a 0 -i 0 -k MAC
r -t 2.572138279 -s 9 -d -1 -p ARP -e 28 -c 2 -a 0 -i 0 -k MAC
r -t 2.572138495 -s 3 -d -1 -p ARP -e 28 -c 2 -a 0 -i 0 -k MAC
r -t 2.572138544 -s 8 -d -1 -p ARP -e 28 -c 2 -a 0 -i 0 -k MAC
r -t 2.572138607 -s 6 -d -1 -p ARP -e 28 -c 2 -a 0 -i 0 -k MAC
r -t 2.572138771 -s 0 -d -1 -p ARP -e 28 -c 2 -a 0 -i 0 -k MAC
r -t 2.572138776 -s 1 -d -1 -p ARP -e 28 -c 2 -a 0 -i 0 -k MAC
r -t 2.572138787 -s 4 -d -1 -p ARP -e 28 -c 2 -a 0 -i 0 -k MAC
r -t 2.572138807 -s 5 -d -1 -p ARP -e 28 -c 2 -a 0 -i 0 -k MAC
+ -t 2.572468279 -s 9 -d -1 -p AODV -e 106 -c 2 -a 0 -i 0 -k MAC 
- -t 2.572468279 -s 9 -d -1 -p AODV -e 106 -c 2 -a 0 -i 0 -k MAC
h -t 2.572468279 -s 9 -d -1 -p AODV -e 106 -c 2 -a 0 -i 0 -k MAC
r -t 2.573316455 -s 7 -d -1 -p AODV -e 48 -c 2 -a 0 -i 0 -k MAC
r -t 2.573316583 -s 2 -d -1 -p AODV -e 48 -c 2 -a 0 -i 0 -k MAC
r -t 2.573316609 -s 8 -d -1 -p AODV -e 48 -c 2 -a 0 -i 0 -k MAC
r -t 2.573316770 -s 3 -d -1 -p AODV -e 48 -c 2 -a 0 -i 0 -k MAC
r -t 2.573316790 -s 6 -d -1 -p AODV -e 48 -c 2 -a 0 -i 0 -k MAC
r -t 2.573341455 -s 7 -d -1 -p AODV -e 48 -c 2 -a 0 -i 0 -k RTR
r -t 2.573341583 -s 2 -d -1 -p AODV -e 48 -c 2 -a 0 -i 0 -k RTR
r -t 2.573341609 -s 8 -d -1 -p AODV -e 48 -c 2 -a 0 -i 0 -k RTR
r -t 2.573341770 -s 3 -d -1 -p AODV -e 48 -c 2 -a 0 -i 0 -k RTR
r -t 2.573341790 -s 6 -d -1 -p AODV -e 48 -c 2 -a 0 -i 0 -k RTR
+ -t 2.573831124 -s 0 -d -1 -p RTS -e 44 -c 2 -a 0 -i 0 -k MAC 
- -t 2.573831124 -s 0 -d -1 -p RTS -e 44 -c 2 -a 0 -i 0 -k MAC
h -t 2.573831124 -s 0 -d -1 -p RTS -e 44 -c 2 -a 0 -i 0 -k MAC
r -t 2.574183793 -s 7 -d -1 -p RTS -e 44 -c 2 -a 0 -i 0 -k MAC
+ -t 2.574193793 -s 7 -d -1 -p CTS -e 38 -c 2 -a 0 -i 0 -k MAC 
- -t 2.574193793 -s 7 -d -1 -p CTS -e 38 -c 2 -a 0 -i 0 -k MAC
h -t 2.574193793 -s 7 -d -1 -p CTS -e 38 -c 2 -a 0 -i 0 -k MAC
r -t 2.574498461 -s 0 -d -1 -p CTS -e 38 -c 2 -a 0 -i 0 -k MAC
+ -t 2.574508461 -s 0 -d -1 -p ARP -e 86 -c 2 -a 0 -i 0 -k MAC 
- -t 2.574508461 -s 0 -d -1 -p ARP -e 86 -c 2 -a 0 -i 0 -k MAC
h -t 2.574508461 -s 0 -d -1 -p ARP -e 86 -c 2 -a 0 -i 0 -k MAC
r -t 2.575197130 -s 7 -d -1 -p ARP -e 28 -c 2 -a 0 -i 0 -k MAC
+ -t 2.575207130 -s 7 -d -1 -p ACK -e 38 -c 2 -a 0 -i 0 -k MAC 
- -t 2.575207130 -s 7 -d -1 -p ACK -e 38 -c 2 -a 0 -i 0 -k MAC
h -t 2.575207130 -s 7 -d -1 -p ACK -e 38 -c 2 -a 0 -i 0 -k MAC
r -t 2.575511798 -s 0 -d -1 -p ACK -e 38 -c 2 -a 0 -i 0 -k MAC
+ -t 2.575641130 -s 7 -d -1 -p RTS -e 44 -c 2 -a 0 -i 0 -k MAC 
- -t 2.575641130 -s 7 -d -1 -p RTS -e 44 -c 2 -a 0 -i 0 -k MAC
h -t 2.575641130 -s 7 -d -1 -p RTS -e 44 -c 2 -a 0 -i 0 -k MAC
r -t 2.575993798 -s 0 -d -1 -p RTS -e 44 -c 2 -a 0 -i 0 -k MAC
+ -t 2.576003798 -s 0 -d -1 -p CTS -e 38 -c 2 -a 0 -i 0 -k MAC 
- -t 2.576003798 -s 0 -d -1 -p CTS -e 38 -c 2 -a 0 -i 0 -k MAC
h -t 2.576003798 -s 0 -d -1 -p CTS -e 38 -c 2 -a 0 -i 0 -k MAC
r -t 2.576308467 -s 7 -d -1 -p CTS -e 38 -c 2 -a 0 -i 0 -k MAC
+ -t 2.576318467 -s 7 -d 0 -p AODV -e 102 -c 2 -a 0 -i 0 -k MAC 
- -t 2.576318467 -s 7 -d 0 -p AODV -e 102 -c 2 -a 0 -i 0 -k MAC
h -t 2.576318467 -s 7 -d 0 -p AODV -e 102 -c 2 -a 0 -i 0 -k MAC
r -t 2.577135135 -s 0 -d 0 -p AODV -e 44 -c 2 -a 0 -i 0 -k MAC
+ -t 2.577145135 -s 0 -d -1 -p ACK -e 38 -c 2 -a 0 -i 0 -k MAC 
- -t 2.577145135 -s 0 -d -1 -p ACK -e 38 -c 2 -a 0 -i 0 -k MAC
h -t 2.577145135 -s 0 -d -1 -p ACK -e 38 -c 2 -a 0 -i 0 -k MAC
+ -t 2.577160135 -s 0 -d 7 -p cbr -e 532 -c 2 -a 0 -i 0 -k RTR 
- -t 2.577160135 -s 0 -d 7 -p cbr -e 532 -c 2 -a 0 -i 0 -k RTR
h -t 2.577160135 -s 0 -d 7 -p cbr -e 532 -c 2 -a 0 -i 0 -k RTR
r -t 2.577449804 -s 7 -d -1 -p ACK -e 38 -c 2 -a 0 -i 0 -k MAC
+ -t 2.577719135 -s 0 -d -1 -p RTS -e 44 -c 2 -a 0 -i 0 -k MAC 
- -t 2.577719135 -s 0 -d -1 -p RTS -e 44 -c 2 -a 0 -i 0 -k MAC
h -t 2.577719135 -s 0 -d -1 -p RTS -e 44 -c 2 -a 0 -i 0 -k MAC
r -t 2.578071804 -s 7 -d -1 -p RTS -e 44 -c 2 -a 0 -i 0 -k MAC
+ -t 2.578081804 -s 7 -d -1 -p CTS -e 38 -c 2 -a 0 -i 0 -k MAC 
- -t 2.578081804 -s 7 -d -1 -p CTS -e 38 -c 2 -a 0 -i 0 -k MAC
h -t 2.578081804 -s 7 -d -1 -p CTS -e 38 -c 2 -a 0 -i 0 -k MAC
r -t 2.578386472 -s 0 -d -1 -p CTS -e 38 -c 2 -a 0 -i 0 -k MAC
+ -t 2.578396472 -s 0 -d 7 -p cbr -e 590 -c 2 -a 0 -i 0 -k MAC 
- -t 2.578396472 -s 0 -d 7 -p cbr -e 590 -c 2 -a 0 -i 0 -k MAC
h -t 2.578396472 -s 0 -d 7 -p cbr -e 590 -c 2 -a 0 -i 0 -k MAC
r -t 2.583117141 -s 7 -d 7 -p cbr -e 532 -c 2 -a 0 -i 0 -k MAC
+ -t 2.583127141 -s 7 -d -1 -p ACK -e 38 -c 2 -a 0 -i 0 -k MAC 
- -t 2.583127141 -s 7 -d -1 -p ACK -e 38 -c 2 -a 0 -i 0 -k MAC
h -t 2.583127141 -s 7 -d -1 -p ACK -e 38 -c 2 -a 0 -i 0 -k MAC
+ -t 2.583142141 -s 7 -d 8 -p cbr -e 532 -c 2 -a 0 -i 0 -k RTR 
- -t 2.583142141 -s 7 -d 8 -p cbr -e 532 -c 2 -a 0 -i 0 -k RTR
h -t 2.583142141 -s 7 -d 8 -p cbr -e 532 -c 2 -a 0 -i 0 -k RTR
r -t 2.583431809 -s 0 -d -1 -p ACK -e 38 -c 2 -a 0 -i 0 -k MAC
+ -t 2.583581141 -s 7 -d -1 -p RTS -e 44 -c 2 -a 0 -i 0 -k MAC 
- -t 2.583581141 -s 7 -d -1 -p RTS -e 44 -c 2 -a 0 -i 0 -k MAC
h -t 2.583581141 -s 7 -d -1 -p RTS -e 44 -c 2 -a 0 -i 0 -k MAC
r -t 2.583933582 -s 8 -d -1 -p RTS -e 44 -c 2 -a 0 -i 0 -k MAC
+ -t 2.583943582 -s 8 -d -1 -p CTS -e 38 -c 2 -a 0 -i 0 -k MAC 
- -t 2.583943582 -s 8 -d -1 -p CTS -e 38 -c 2 -a 0 -i 0 -k MAC
h -t 2.583943582 -s 8 -d -1 -p CTS -e 38 -c 2 -a 0 -i 0 -k MAC
r -t 2.584248024 -s 7 -d -1 -p CTS -e 38 -c 2 -a 0 -i 0 -k MAC
+ -t 2.584258024 -s 7 -d 8 -p cbr -e 590 -c 2 -a 0 -i 0 -k MAC 
- -t 2.584258024 -s 7 -d 8 -p cbr -e 590 -c 2 -a 0 -i 0 -k MAC
h -t 2.584258024 -s 7 -d 8 -p cbr -e 590 -c 2 -a 0 -i 0 -k MAC
r -t 2.588978465 -s 8 -d 8 -p cbr -e 532 -c 2 -a 0 -i 0 -k MAC
+ -t 2.588988465 -s 8 -d -1 -p ACK -e 38 -c 2 -a 0 -i 0 -k MAC 
- -t 2.588988465 -s 8 -d -1 -p ACK -e 38 -c 2 -a 0 -i 0 -k MAC
h -t 2.588988465 -s 8 -d -1 -p ACK -e 38 -c 2 -a 0 -i 0 -k MAC
r -t 2.589003465 -s 8 -d 8 -p cbr -e 532 -c 2 -a 0 -i 0 -k AGT
r -t 2.589292906 -s 7 -d -1 -p ACK -e 38 -c 2 -a 0 -i 0 -k MAC
n -t 3.000000 -s 0 -x 153.080000 -y 301.410000 -U -5.279033 -V -7.276806 -T 0.895997
n -t 3.000000 -s 1 -x 119.560000 -y 301.650000 -U -19.030000 -V 0.000000 -T 1.000000
n -t 3.000000 -s 2 -x 148.350000 -y 139.120000 -U 0.000000 -V -19.290000 -T 1.000000
n -t 3.000000 -s 3 -x 259.440000 -y 148.350000 -U 0.000000 -V 0.000000 -T 0.000000
+ -t 3.057178456 -s 0 -d -1 -p cbr -e 512 -c 2 -a 0 -i 1 -k AGT 
- -t 3.057178456 -s 0 -d -1 -p cbr -e 512 -c 2 -a 0 -i 1 -k AGT
h -t 3.057178456 -s 0 -d -1 -p cbr -e 512 -c 2 -a 0 -i 1 -k AGT
+ -t 3.057178456 -s 0 -d 7 -p cbr -e 532 -c 2 -a 0 -i 1 -k RTR 
- -t 3.057178456 -s 0 -d 7 -p cbr -e 532 -c 2 -a 0 -i 1 -k RTR
h -t 3.057178456 -s 0 -d 7 -p cbr -e 532 -c 2 -a 0 -i 1 -k RTR
+ -t 3.057833456 -s 0 -d -1 -p RTS -e 44 -c 2 -a 0 -i 0 -k MAC 
- -t 3.057833456 -s 0 -d -1 -p RTS -e 44 -c 2 -a 0 -i 0 -k MAC
h -t 3.057833456 -s 0 -d -1 -p RTS -e 44 -c 2 -a 0 -i 0 -k MAC
r -t 3.058186123 -s 7 -d -1 -p RTS -e 44 -c 2 -a 0 -i 0 -k MAC
+ -t 3.058196123 -s 7 -d -1 -p CTS -e 38 -c 2 -a 0 -i 0 -k MAC 
- -t 3.058196123 -s 7 -d -1 -p CTS -e 38 -c 2 -a 0 -i 0 -k MAC
h -t 3.058196123 -s 7 -d -1 -p CTS -e 38 -c 2 -a 0 -i 0 -k MAC
r -t 3.058500789 -s 0 -d -1 -p CTS -e 38 -c 2 -a 0 -i 0 -k MAC
+ -t 3.058510789 -s 0 -d 7 -p cbr -e 590 -c 2 -a 0 -i 1 -k MAC 
- -t 3.058510789 -s 0 -d 7 -p cbr -e 590 -c 2 -a 0 -i 1 -k MAC
h -t 3.058510789 -s 0 -d 7 -p cbr -e 590 -c 2 -a 0 -i 1 -k MAC
r -t 3.063231456 -s 7 -d 7 -p cbr -e 532 -c 2 -a 0 -i 1 -k MAC
+ -t 3.063241456 -s 7 -d -1 -p ACK -e 38 -c 2 -a 0 -i 0 -k MAC 
- -t 3.063241456 -s 7 -d -1 -p ACK -e 38 -c 2 -a 0 -i 0 -k MAC
h -t 3.063241456 -s 7 -d -1 -p ACK -e 38 -c 2 -a 0 -i 0 -k MAC
+ -t 3.063256456 -s 7 -d 8 -p cbr -e 532 -c 2 -a 0 -i 1 -k RTR 
- -t 3.063256456 -s 7 -d 8 -p cbr -e 532 -c 2 -a 0 -i 1 -k RTR
h -t 3.063256456 -s 7 -d 8 -p cbr -e 532 -c 2 -a 0 -i 1 -k RTR
r -t 3.063546122 -s 0 -d -1 -p ACK -e 38 -c 2 -a 0 -i 0 -k MAC
+ -t 3.063655456 -s 7 -d -1 -p RTS -e 44 -c 2 -a 0 -i 0 -k MAC 
- -t 3.063655456 -s 7 -d -1 -p RTS -e 44 -c 2 -a 0 -i 0 -k MAC
h -t 3.063655456 -s 7 -d -1 -p RTS -e 44 -c 2 -a 0 -i 0 -k MAC
r -t 3.064007897 -s 8 -d -1 -p RTS -e 44 -c 2 -a 0 -i 0 -k MAC
+ -t 3.064017897 -s 8 -d -1 -p CTS -e 38 -c 2 -a 0 -i 0 -k MAC 
- -t 3.064017897 -s 8 -d -1 -p CTS -e 38 -c 2 -a 0 -i 0 -k MAC
h -t 3.064017897 -s 8 -d -1 -p CTS -e 38 -c 2 -a 0 -i 0 -k MAC
r -t 3.064322339 -s 7 -d -1 -p CTS -e 38 -c 2 -a 0 -i 0 -k MAC
+ -t 3.064332339 -s 7 -d 8 -p cbr -e 590 -c 2 -a 0 -i 1 -k MAC 
- -t 3.064332339 -s 7 -d 8 -p cbr -e 590 -c 2 -a 0 -i 1 -k MAC
h -t 3.064332339 -s 7 -d 8 -p cbr -e 590 -c 2 -a 0 -i 1 -k MAC
r -t 3.069052780 -s 8 -d 8 -p cbr -e 532 -c 2 -a 0 -i 1 -k MAC
+ -t 3.069062780 -s 8 -d -1 -p ACK -e 38 -c 2 -a 0 -i 0 -k MAC 
- -t 3.069062780 -s 8 -d -1 -p ACK -e 38 -c 2 -a 0 -i 0 -k MAC
h -t 3.069062780 -s 8 -d -1 -p ACK -e 38 -c 2 -a 0 -i 0 -k MAC
r -t 3.069077780 -s 8 -d 8 -p cbr -e 532 -c 2 -a 0 -i 1 -k AGT
r -t 3.069367222 -s 7 -d -1 -p ACK -e 38 -c 2 -a 0 -i 0 -k MAC
n -t 4.000000 -s 0 -x 148.350000 -y 294.890000 -U 0.000000 -V -10.980000 -T 1.000000
n -t 4.000000 -s 1 -x 100.530000 -y 301.650000 -U -19.990000 -V 0.000000 -T 1.000500
n -t 4.000000 -s 2 -x 148.350000 -y 119.830000 -U 0.000000 -V -19.130000 -T 0.999477
n -t 4.000000 -s 3 -x 259.440000 -y 148.350000 -U 14.860000 -V 0.000000 -T 1.000000
n -t 4.000000 -s 4 -x 107.690000 -y 301.650000 -U 0.000000 -V 0.000000 -T 0.000000
+ -t 4.448526277 -s 0 -d -1 -p cbr -e 512 -c 2 -a 0 -i 2 -k AGT 
- -t 4.448526277 -s 0 -d -1 -p cbr -e 512 -c 2 -a 0 -i 2 -k AGT
h -t 4.448526277 -s 0 -d -1 -p cbr -e 512 -c 2 -a 0 -i 2 -k AGT
+ -t 4.448526277 -s 0 -d 7 -p cbr -e 532 -c 2 -a 0 -i 2 -k RTR 
- -t 4.448526277 -s 0 -d 7 -p cbr -e 532 -c 2 -a 0 -i 2 -k RTR
h -t 4.448526277 -s 0 -d 7 -p cbr -e 532 -c 2 -a 0 -i 2 -k RTR
+ -t 4.448881277 -s 0 -d -1 -p RTS -e 44 -c 2 -a 0 -i 0 -k MAC 
- -t 4.448881277 -s 0 -d -1 -p RTS -e 44 -c 2 -a 0 -i 0 -k MAC
h -t 4.448881277 -s 0 -d -1 -p RTS -e 44 -c 2 -a 0 -i 0 -k MAC
r -t 4.449233907 -s 7 -d -1 -p RTS -e 44 -c 2 -a 0 -i 0 -k MAC
+ -t 4.449243907 -s 7 -d -1 -p CTS -e 38 -c 2 -a 0 -i 0 -k MAC 
- -t 4.449243907 -s 7 -d -1 -p CTS -e 38 -c 2 -a 0 -i 0 -k MAC
h -t 4.449243907 -s 7 -d -1 -p CTS -e 38 -c 2 -a 0 -i 0 -k MAC
r -t 4.449548537 -s 0 -d -1 -p CTS -e 38 -c 2 -a 0 -i 0 -k MAC
+ -t 4.449558537 -s 0 -d 7 -p cbr -e 590 -c 2 -a 0 -i 2 -k MAC 
- -t 4.449558537 -s 0 -d 7 -p cbr -e 590 -c 2 -a 0 -i 2 -k MAC
h -t 4.449558537 -s 0 -d 7 -p cbr -e 590 -c 2 -a 0 -i 2 -k MAC
r -t 4.454279167 -s 7 -d 7 -p cbr -e 532 -c 2 -a 0 -i 2 -k MAC
+ -t 4.454289167 -s 7 -d -1 -p ACK -e 38 -c 2 -a 0 -i 0 -k MAC 
- -t 4.454289167 -s 7 -d -1 -p ACK -e 38 -c 2 -a 0 -i 0 -k MAC
h -t 4.454289167 -s 7 -d -1 -p ACK -e 38 -c 2 -a 0 -i 0 -k MAC
+ -t 4.454304167 -s 7 -d 8 -p cbr -e 532 -c 2 -a 0 -i 2 -k RTR 
- -t 4.454304167 -s 7 -d 8 -p cbr -e 532 -c 2 -a 0 -i 2 -k RTR
h -t 4.454304167 -s 7 -d 8 -p cbr -e 532 -c 2 -a 0 -i 2 -k RTR
r -t 4.454593797 -s 0 -d -1 -p ACK -e 38 -c 2 -a 0 -i 0 -k MAC
+ -t 4.454823167 -s 7 -d -1 -p RTS -e 44 -c 2 -a 0 -i 0 -k MAC 
- -t 4.454823167 -s 7 -d -1 -p RTS -e 44 -c 2 -a 0 -i 0 -k MAC
h -t 4.454823167 -s 7 -d -1 -p RTS -e 44 -c 2 -a 0 -i 0 -k MAC
r -t 4.455175609 -s 8 -d -1 -p RTS -e 44 -c 2 -a 0 -i 0 -k MAC
+ -t 4.455185609 -s 8 -d -1 -p CTS -e 38 -c 2 -a 0 -i 0 -k MAC 
- -t 4.455185609 -s 8 -d -1 -p CTS -e 38 -c 2 -a 0 -i 0 -k MAC
h -t 4.455185609 -s 8 -d -1 -p CTS -e 38 -c 2 -a 0 -i 0 -k MAC
r -t 4.455490050 -s 7 -d -1 -p CTS -e 38 -c 2 -a 0 -i 0 -k MAC
+ -t 4.455500050 -s 7 -d 8 -p cbr -e 590 -c 2 -a 0 -i 2 -k MAC 
- -t 4.455500050 -s 7 -d 8 -p cbr -e 590 -c 2 -a 0 -i 2 -k MAC
h -t 4.455500050 -s 7 -d 8 -p cbr -e 590 -c 2 -a 0 -i 2 -k MAC
r -t 4.460220492 -s 8 -d 8 -p cbr -e 532 -c 2 -a 0 -i 2 -k MAC
+ -t 4.460230492 -s 8 -d -1 -p ACK -e 38 -c 2 -a 0 -i 0 -k MAC 
- -t 4.460230492 -s 8 -d -1 -p ACK -e 38 -c 2 -a 0 -i 0 -k MAC
h -t 4.460230492 -s 8 -d -1 -p ACK -e 38 -c 2 -a 0 -i 0 -k MAC
r -t 4.460245492 -s 8 -d 8 -p cbr -e 532 -c 2 -a 0 -i 2 -k AGT
r -t 4.460534933 -s 7 -d -1 -p ACK -e 38 -c 2 -a 0 -i 0 -k MAC
n -t 5.000000 -s 0 -x 148.350000 -y 283.910000 -U 0.000000 -V -12.690000 -T 1.000000
n -t 5.000000 -s 1 -x 80.540000 -y 301.650000 -U -19.920000 -V 0.000000 -T 1.000502
n -t 5.000000 -s 2 -x 148.350000 -y 100.710000 -U 0.000000 -V -19.580000 -T 1.000511
n -t 5.000000 -s 3 -x 274.300000 -y 148.350000 -U 11.090000 -V 0.000000 -T 1.000000
n -t 5.000000 -s 4 -x 107.690000 -y 301.650000 -U -18.790000 -V 0.000000 -T 1.000000
n -t 5.000000 -s 5 -x 227.590000 -y 298.350000 -U 0.000000 -V 0.000000 -T 0.000000
+ -t 5.284189036 -s 0 -d -1 -p cbr -e 512 -c 2 -a 0 -i 3 -k AGT 
- -t 5.284189036 -s 0 -d -1 -p cbr -e 512 -c 2 -a 0 -i 3 -k AGT
h -t 5.284189036 -s 0 -d -1 -p cbr -e 512 -c 2 -a 0 -i 3 -k AGT
+ -t 5.284189036 -s 0 -d 7 -p cbr -e 532 -c 2 -a 0 -i 3 -k RTR 
- -t 5.284189036 -s 0 -d 7 -p cbr -e 532 -c 2 -a 0 -i 3 -k RTR
h -t 5.284189036 -s 0 -d 7 -p cbr -e 532 -c 2 -a 0 -i 3 -k RTR
+ -t 5.284484036 -s 0 -d -1 -p RTS -e 44 -c 2 -a 0 -i 0 -k MAC 
- -t 5.284484036 -s 0 -d -1 -p RTS -e 44 -c 2 -a 0 -i 0 -k MAC
h -t 5.284484036 -s 0 -d -1 -p RTS -e 44 -c 2 -a 0 -i 0 -k MAC
r -t 5.284836634 -s 7 -d -1 -p RTS -e 44 -c 2 -a 0 -i 0 -k MAC
+ -t 5.284846634 -s 7 -d -1 -p CTS -e 38 -c 2 -a 0 -i 0 -k MAC 
- -t 5.284846634 -s 7 -d -1 -p CTS -e 38 -c 2 -a 0 -i 0 -k MAC
h -t 5.284846634 -s 7 -d -1 -p CTS -e 38 -c 2 -a 0 -i 0 -k MAC
r -t 5.285151231 -s 0 -d -1 -p CTS -e 38 -c 2 -a 0 -i 0 -k MAC
+ -t 5.285161231 -s 0 -d 7 -p cbr -e 590 -c 2 -a 0 -i 3 -k MAC 
- -t 5.285161231 -s 0 -d 7 -p cbr -e 590 -c 2 -a 0 -i 3 -k MAC
h -t 5.285161231 -s 0 -d 7 -p cbr -e 590 -c 2 -a 0 -i 3 -k MAC
r -t 5.289881829 -s 7 -d 7 -p cbr -e 532 -c 2 -a 0 -i 3 -k MAC
+ -t 5.289891829 -s 7 -d -1 -p ACK -e 38 -c 2 -a 0 -i 0 -k MAC 
- -t 5.289891829 -s 7 -d -1 -p ACK -e 38 -c 2 -a 0 -i 0 -k MAC
h -t 5.289891829 -s 7 -d -1 -p ACK -e 38 -c 2 -a 0 -i 0 -k MAC
+ -t 5.289906829 -s 7 -d 8 -p cbr -e 532 -c 2 -a 0 -i 3 -k RTR 
- -t 5.289906829 -s 7 -d 8 -p cbr -e 532 -c 2 -a 0 -i 3 -k RTR
h -t 5.289906829 -s 7 -d 8 -p cbr -e 532 -c 2 -a 0 -i 3 -k RTR
r -t 5.290196427 -s 0 -d -1 -p ACK -e 38 -c 2 -a 0 -i 0 -k MAC
+ -t 5.290565829 -s 7 -d -1 -p RTS -e 44 -c 2 -a 0 -i 0 -k MAC 
- -t 5.290565829 -s 7 -d -1 -p RTS -e 44 -c 2 -a 0 -i 0 -k MAC
h -t 5.290565829 -s 7 -d -1 -p RTS -e 44 -c 2 -a 0 -i 0 -k MAC
r -t 5.290918270 -s 8 -d -1 -p RTS -e 44 -c 2 -a 0 -i 0 -k MAC
+ -t 5.290928270 -s 8 -d -1 -p CTS -e 38 -c 2 -a 0 -i 0 -k MAC 
- -t 5.290928270 -s 8 -d -1 -p CTS -e 38 -c 2 -a 0 -i 0 -k MAC
h -t 5.290928270 -s 8 -d -1 -p CTS -e 38 -c 2 -a 0 -i 0 -k MAC
r -t 5.291232712 -s 7 -d -1 -p CTS -e 38 -c 2 -a 0 -i 0 -k MAC