n -t * -s 0  -x 298.35000000000002 -y 170.06 -Z 0 -z 100  -v circle -c black
n -t * -s 1  -x 598.35000000000002 -y 438.86000000000001 -Z 0 -z 100  -v circle -c black
n -t * -s 2  -x 889.12 -y 751.64999999999998 -Z 0 -z 100  -v circle -c black
n -t * -s 3  -x 1.6499999999999999 -y 559.44000000000005 -Z 0 -z 100  -v circle -c black
n -t * -s 4  -x 65.689999999999998 -y 751.64999999999998 -Z 0 -z 100  -v circle -c black
n -t * -s 5  -x 751.64999999999998 -y 311.24000000000001 -Z 0 -z 100  -v circle -c black
n -t * -s 6  -x 89.530000000000001 -y 151.65000000000001 -Z 0 -z 100  -v circle -c black
n -t * -s 7  -x 892.51999999999998 -y 901.64999999999998 -Z 0 -z 100  -v circle -c black
n -t * -s 8  -x 571.64999999999998 -y 451.64999999999998 -Z 0 -z 100  -v circle -c black
n -t * -s 9  -x 760.38 -y 301.64999999999998 -Z 0 -z 100  -v circle -c black
V -t * -v 1.0a5 -a 0
W -t * -x 1700 -y 1700
A -t * -n 1 -p 0 -o 0x7fffffff -c 30 -a 1
A -t * -h 1 -m 1073741823 -s 0
n -t 0.000000 -s 0 -x 298.350000 -y 170.060000 -U 0.000000 -V 0.000000 -T 0.000000
n -t 0 -s 0 -S COLOR -c green -o green -i green -I green
n -t 0 -s 0 -S DLABEL -l "Source" -L ""
n -t 0 -s 1 -S COLOR -c blue -o blue -i blue -I blue
n -t 0 -s 1 -S DLABEL -l "Destination" -L ""
n -t 0 -s 9 -S COLOR -c red -o red -i red -I red
n -t 0 -s 9 -S DLABEL -l "Attacker" -L ""
n -t 0 -s 3 -S COLOR -c red -o red -i red -I red
n -t 0 -s 3 -S DLABEL -l "Attacker" -L ""
n -t 1.000000 -s 0 -x 298.350000 -y 170.060000 -U -1.944899 -V -18.970563 -T 0.961490
n -t 1.000000 -s 1 -x 598.350000 -y 438.860000 -U 0.000000 -V 0.000000 -T 0.000000
n -t 2.000000 -s 0 -x 296.480000 -y 151.820000 -U -19.359253 -V -0.170081 -T 0.999522
n -t 2.000000 -s 1 -x 598.350000 -y 438.860000 -U 0.000000 -V -19.230000 -T 1.000000
n -t 2.000000 -s 2 -x 889.120000 -y 751.650000 -U 0.000000 -V 0.000000 -T 0.000000
+ -t 2.556838879 -s 0 -d -1 -p cbr -e 512 -c 2 -a 0 -i 0 -k AGT 
- -t 2.556838879 -s 0 -d -1 -p cbr -e 512 -c 2 -a 0 -i 0 -k AGT
h -t 2.556838879 -s 0 -d -1 -p cbr -e 512 -c 2 -a 0 -i 0 -k AGT
+ -t 2.556838879 -s 0 -d -1 -p AODV -e 48 -c 2 -a 0 -i 0 -k RTR 
- -t 2.556838879 -s 0 -d -1 -p AODV -e 48 -c 2 -a 0 -i 0 -k RTR
h -t 2.556838879 -s 0 -d -1 -p AODV -e 48 -c 2 -a 0 -i 0 -k RTR
+ -t 2.556953879 -s 0 -d -1 -p AODV -e 106 -c 2 -a 0 -i 0 -k MAC 
- -t 2.556953879 -s 0 -d -1 -p AODV -e 106 -c 2 -a 0 -i 0 -k MAC
h -t 2.556953879 -s 0 -d -1 -p AODV -e 106 -c 2 -a 0 -i 0 -k MAC
r -t 2.557802533 -s 6 -d -1 -p AODV -e 48 -c 2 -a 0 -i 0 -k MAC
r -t 2.557827533 -s 6 -d -1 -p AODV -e 48 -c 2 -a 0 -i 0 -k RTR
+ -t 2.558708759 -s 6 -d -1 -p AODV -e 48 -c 2 -a 0 -i 0 -k RTR 
- -t 2.558708759 -s 6 -d -1 -p AODV -e 48 -c 2 -a 0 -i 0 -k RTR
h -t 2.558708759 -s 6 -d -1 -p AODV -e 48 -c 2 -a 0 -i 0 -k RTR
+ -t 2.559103759 -s 6 -d -1 -p AODV -e 106 -c 2 -a 0 -i 0 -k MAC 
- -t 2.559103759 -s 6 -d -1 -p AODV -e 106 -c 2 -a 0 -i 0 -k MAC
h -t 2.559103759 -s 6 -d -1 -p AODV -e 106 -c 2 -a 0 -i 0 -k MAC
r -t 2.559952413 -s 0 -d -1 -p AODV -e 48 -c 2 -a 0 -i 0 -k MAC
r -t 2.559977413 -s 0 -d -1 -p AODV -e 48 -c 2 -a 0 -i 0 -k RTR
n -t 3.000000 -s 0 -x 277.130000 -y 151.650000 -U -19.680000 -V 0.000000 -T 1.000000
n -t 3.000000 -s 1 -x 598.350000 -y 419.630000 -U 0.000000 -V -19.030000 -T 1.000525
n -t 3.000000 -s 2 -x 889.120000 -y 751.650000 -U -19.290000 -V 0.000000 -T 1.000000
n -t 3.000000 -s 3 -x 1.650000 -y 559.440000 -U 0.000000 -V 0.000000 -T 0.000000
+ -t 3.057178456 -s 0 -d -1 -p cbr -e 512 -c 2 -a 0 -i 1 -k AGT 
- -t 3.057178456 -s 0 -d -1 -p cbr -e 512 -c 2 -a 0 -i 1 -k AGT
h -t 3.057178456 -s 0 -d -1 -p cbr -e 512 -c 2 -a 0 -i 1 -k AGT
+ -t 3.870140228 -s 0 -d -1 -p cbr -e 512 -c 2 -a 0 -i 2 -k AGT 
- -t 3.870140228 -s 0 -d -1 -p cbr -e 512 -c 2 -a 0 -i 2 -k AGT
h -t 3.870140228 -s 0 -d -1 -p cbr -e 512 -c 2 -a 0 -i 2 -k AGT
n -t 4.000000 -s 0 -x 257.450000 -y 151.650000 -U -19.130000 -V 0.000000 -T 0.999477
n -t 4.000000 -s 1 -x 598.350000 -y 400.600000 -U 0.000000 -V -19.990000 -T 1.000500
n -t 4.000000 -s 2 -x 869.830000 -y 751.650000 -U -19.390000 -V 0.000000 -T 1.000000
n -t 4.000000 -s 3 -x 1.650000 -y 559.440000 -U 0.000000 -V 15.690000 -T 1.000000
n -t 4.000000 -s 4 -x 65.690000 -y 751.650000 -U 0.000000 -V 0.000000 -T 0.000000
+ -t 4.500000000 -s 0 -d -1 -p AODV -e 48 -c 2 -a 0 -i 0 -k RTR 
- -t 4.500000000 -s 0 -d -1 -p AODV -e 48 -c 2 -a 0 -i 0 -k RTR
h -t 4.500000000 -s 0 -d -1 -p AODV -e 48 -c 2 -a 0 -i 0 -k RTR
+ -t 4.500315000 -s 0 -d -1 -p AODV -e 106 -c 2 -a 0 -i 0 -k MAC 
- -t 4.500315000 -s 0 -d -1 -p AODV -e 106 -c 2 -a 0 -i 0 -k MAC
h -t 4.500315000 -s 0 -d -1 -p AODV -e 106 -c 2 -a 0 -i 0 -k MAC
r -t 4.501163528 -s 6 -d -1 -p AODV -e 48 -c 2 -a 0 -i 0 -k MAC
r -t 4.501188528 -s 6 -d -1 -p AODV -e 48 -c 2 -a 0 -i 0 -k RTR
+ -t 4.504279318 -s 6 -d -1 -p AODV -e 48 -c 2 -a 0 -i 0 -k RTR 
- -t 4.504279318 -s 6 -d -1 -p AODV -e 48 -c 2 -a 0 -i 0 -k RTR
h -t 4.504279318 -s 6 -d -1 -p AODV -e 48 -c 2 -a 0 -i 0 -k RTR
+ -t 4.504594318 -s 6 -d -1 -p AODV -e 106 -c 2 -a 0 -i 0 -k MAC 
- -t 4.504594318 -s 6 -d -1 -p AODV -e 106 -c 2 -a 0 -i 0 -k MAC
h -t 4.504594318 -s 6 -d -1 -p AODV -e 106 -c 2 -a 0 -i 0 -k MAC
r -t 4.505442846 -s 0 -d -1 -p AODV -e 48 -c 2 -a 0 -i 0 -k MAC
r -t 4.505467846 -s 0 -d -1 -p AODV -e 48 -c 2 -a 0 -i 0 -k RTR
n -t 5.000000 -s 0 -x 238.330000 -y 151.650000 -U -19.920000 -V 0.000000 -T 1.000502
n -t 5.000000 -s 1 -x 598.350000 -y 380.610000 -U 0.000000 -V -19.660000 -T 1.000000
n -t 5.000000 -s 2 -x 850.440000 -y 751.650000 -U -18.860000 -V 0.000000 -T 1.000000
n -t 5.000000 -s 3 -x 1.650000 -y 575.130000 -U 0.000000 -V 11.560000 -T 1.000000
n -t 5.000000 -s 4 -x 65.690000 -y 751.650000 -U -19.110000 -V 0.000000 -T 1.000000
n -t 5.000000 -s 5 -x 751.650000 -y 311.240000 -U 0.000000 -V 0.000000 -T 0.000000
+ -t 5.186616279 -s 0 -d -1 -p cbr -e 512 -c 2 -a 0 -i 3 -k AGT 
- -t 5.186616279 -s 0 -d -1 -p cbr -e 512 -c 2 -a 0 -i 3 -k AGT
h -t 5.186616279 -s 0 -d -1 -p cbr -e 512 -c 2 -a 0 -i 3 -k AGT
+ -t 5.729410837 -s 0 -d -1 -p cbr -e 512 -c 2 -a 0 -i 4 -k AGT 
- -t 5.729410837 -s 0 -d -1 -p cbr -e 512 -c 2 -a 0 -i 4 -k AGT
h -t 5.729410837 -s 0 -d -1 -p cbr -e 512 -c 2 -a 0 -i 4 -k AGT
n -t 6.000000 -s 0 -x 218.410000 -y 151.650000 -U -19.600000 -V 0.000000 -T 1.000510
n -t 6.000000 -s 1 -x 598.350000 -y 360.950000 -U 0.000000 -V -19.330000 -T 1.000517
n -t 6.000000 -s 2 -x 831.580000 -y 751.650000 -U -19.180000 -V 0.000000 -T 1.000000
n -t 6.000000 -s 3 -x 1.650000 -y 586.690000 -U 0.000000 -V 7.060000 -T 1.000000
n -t 6.000000 -s 4 -x 46.580000 -y 751.650000 -U -15.880000 -V 0.000000 -T 1.000630
n -t 6.000000 -s 5 -x 751.650000 -y 311.240000 -U 0.000000 -V 18.850000 -T 1.000000
n -t 6.000000 -s 6 -x 89.530000 -y 151.650000 -U 0.000000 -V 0.000000 -T 0.000000
+ -t 6.869478496 -s 0 -d -1 -p cbr -e 512 -c 2 -a 0 -i 5 -k AGT 
- -t 6.869478496 -s 0 -d -1 -p cbr -e 512 -c 2 -a 0 -i 5 -k AGT
h -t 6.869478496 -s 0 -d -1 -p cbr -e 512 -c 2 -a 0 -i 5 -k AGT
n -t 7.000000 -s 0 -x 198.810000 -y 151.650000 -U -17.210000 -V 0.000000 -T 1.000000
n -t 7.000000 -s 1 -x 598.350000 -y 341.620000 -U 0.000000 -V -15.840000 -T 1.000000
n -t 7.000000 -s 2 -x 812.400000 -y 751.650000 -U -19.960000 -V 0.000000 -T 1.000000
n -t 7.000000 -s 3 -x 1.650000 -y 593.750000 -U 0.000000 -V -9.270000 -T 0.155340
n -t 7.000000 -s 4 -x 30.700000 -y 751.650000 -U -11.820000 -V 0.000000 -T 1.000846
n -t 7.000000 -s 5 -x 751.650000 -y 330.090000 -U 0.000000 -V 19.790000 -T 1.000000
n -t 7.000000 -s 6 -x 89.530000 -y 151.650000 -U -18.760000 -V 0.000000 -T 1.000000
n -t 7.000000 -s 7 -x 892.520000 -y 901.650000 -U 0.000000 -V 0.000000 -T 0.000000
+ -t 7.483286744 -s 0 -d -1 -p cbr -e 512 -c 2 -a 0 -i 6 -k AGT 
- -t 7.483286744 -s 0 -d -1 -p cbr -e 512 -c 2 -a 0 -i 6 -k AGT
h -t 7.483286744 -s 0 -d -1 -p cbr -e 512 -c 2 -a 0 -i 6 -k AGT
n -t 8.000000 -s 0 -x 181.600000 -y 151.650000 -U -12.710000 -V 0.000000 -T 1.000000
n -t 8.000000 -s 1 -x 598.350000 -y 325.780000 -U 0.000000 -V -11.390000 -T 1.000000
n -t 8.000000 -s 2 -x 792.440000 -y 751.650000 -U -15.750000 -V 0.000000 -T 1.000000
n -t 8.000000 -s 3 -x 1.650000 -y 592.310000 -U 0.000000 -V -11.520000 -T 1.000000
n -t 8.000000 -s 4 -x 18.880000 -y 751.650000 -U -8.650000 -V 0.000000 -T 1.001156
n -t 8.000000 -s 5 -x 751.650000 -y 349.880000 -U 0.000000 -V 19.470000 -T 1.000000
n -t 8.000000 -s 6 -x 70.770000 -y 151.650000 -U -18.750000 -V 0.000000 -T 0.999467
n -t 8.000000 -s 7 -x 892.520000 -y 901.650000 -U -19.710000 -V 0.000000 -T 1.000000
n -t 8.000000 -s 8 -x 571.650000 -y 451.650000 -U 0.000000 -V 0.000000 -T 0.000000
+ -t 8.500000000 -s 0 -d -1 -p AODV -e 48 -c 2 -a 0 -i 0 -k RTR 
- -t 8.500000000 -s 0 -d -1 -p AODV -e 48 -c 2 -a 0 -i 0 -k RTR
h -t 8.500000000 -s 0 -d -1 -p AODV -e 48 -c 2 -a 0 -i 0 -k RTR
+ -t 8.500235000 -s 0 -d -1 -p AODV -e 106 -c 2 -a 0 -i 0 -k MAC 
- -t 8.500235000 -s 0 -d -1 -p AODV -e 106 -c 2 -a 0 -i 0 -k MAC
h -t 8.500235000 -s 0 -d -1 -p AODV -e 106 -c 2 -a 0 -i 0 -k MAC
r -t 8.501083380 -s 6 -d -1 -p AODV -e 48 -c 2 -a 0 -i 0 -k MAC
r -t 8.501108380 -s 6 -d -1 -p AODV -e 48 -c 2 -a 0 -i 0 -k RTR
+ -t 8.502049768 -s 6 -d -1 -p AODV -e 48 -c 2 -a 0 -i 0 -k RTR 
- -t 8.502049768 -s 6 -d -1 -p AODV -e 48 -c 2 -a 0 -i 0 -k RTR
h -t 8.502049768 -s 6 -d -1 -p AODV -e 48 -c 2 -a 0 -i 0 -k RTR
+ -t 8.502444768 -s 6 -d -1 -p AODV -e 106 -c 2 -a 0 -i 0 -k MAC 
- -t 8.502444768 -s 6 -d -1 -p AODV -e 106 -c 2 -a 0 -i 0 -k MAC
h -t 8.502444768 -s 6 -d -1 -p AODV -e 106 -c 2 -a 0 -i 0 -k MAC
r -t 8.503293148 -s 0 -d -1 -p AODV -e 48 -c 2 -a 0 -i 0 -k MAC
r -t 8.503318148 -s 0 -d -1 -p AODV -e 48 -c 2 -a 0 -i 0 -k RTR
+ -t 8.843014442 -s 0 -d -1 -p cbr -e 512 -c 2 -a 0 -i 7 -k AGT 
- -t 8.843014442 -s 0 -d -1 -p cbr -e 512 -c 2 -a 0 -i 7 -k AGT
h -t 8.843014442 -s 0 -d -1 -p cbr -e 512 -c 2 -a 0 -i 7 -k AGT
n -t 9.000000 -s 0 -x 168.890000 -y 151.650000 -U -8.510000 -V 0.000000 -T 0.998825
n -t 9.000000 -s 1 -x 598.350000 -y 314.390000 -U 0.000000 -V -7.480000 -T 1.000000
n -t 9.000000 -s 2 -x 776.690000 -y 751.650000 -U -11.250000 -V 0.000000 -T 1.000889
n -t 9.000000 -s 3 -x 1.650000 -y 580.790000 -U 0.000000 -V -13.350000 -T 1.000000
n -t 9.000000 -s 4 -x 10.230000 -y 751.650000 -U -4.360000 -V 0.000000 -T 1.000000
n -t 9.000000 -s 5 -x 751.650000 -y 369.350000 -U 0.000000 -V 19.130000 -T 1.000000
n -t 9.000000 -s 6 -x 52.030000 -y 151.650000 -U -17.330000 -V 0.000000 -T 1.000000
n -t 9.000000 -s 7 -x 872.810000 -y 901.650000 -U -19.100000 -V 0.000000 -T 1.000524
n -t 9.000000 -s 8 -x 571.650000 -y 451.650000 -U -18.780000 -V 0.000000 -T 1.000000
n -t 9.000000 -s 9 -x 760.380000 -y 301.650000 -U 0.000000 -V 0.000000 -T 0.000000
+ -t 9.601102391 -s 0 -d -1 -p cbr -e 512 -c 2 -a 0 -i 8 -k AGT 
- -t 9.601102391 -s 0 -d -1 -p cbr -e 512 -c 2 -a 0 -i 8 -k AGT
h -t 9.601102391 -s 0 -d -1 -p cbr -e 512 -c 2 -a 0 -i 8 -k AGT
n -t 10.000000 -s 0 -x 160.390000 -y 151.650000 -U -4.010000 -V 0.000000 -T 1.000000
n -t 10.000000 -s 1 -x 598.350000 -y 306.910000 -U 1.290272 -V -3.860064 -T 0.930036
n -t 10.000000 -s 2 -x 765.440000 -y 751.650000 -U -6.750000 -V 0.000000 -T 1.001481
n -t 10.000000 -s 3 -x 1.650000 -y 567.440000 -U 0.000000 -V -15.110000 -T 1.000000
n -t 10.000000 -s 4 -x 5.870000 -y 751.650000 -U -0.110000 -V 0.000000 -T 1.000000
n -t 10.000000 -s 5 -x 751.650000 -y 388.480000 -U 0.000000 -V 18.760000 -T 1.000000
n -t 10.000000 -s 6 -x 34.700000 -y 151.650000 -U -13.750000 -V 0.000000 -T 1.000000
n -t 10.000000 -s 7 -x 853.710000 -y 901.650000 -U -19.800000 -V 0.000000 -T 1.000505
n -t 10.000000 -s 8 -x 552.870000 -y 451.650000 -U -19.960000 -V 0.000000 -T 1.000501
n -t 10.000000 -s 9 -x 760.380000 -y 301.650000 -U -4.200000 -V 0.000000 -T 1.000000
+ -t 10.509788067 -s 0 -d -1 -p cbr -e 512 -c 2 -a 0 -i 9 -k AGT 
- -t 10.509788067 -s 0 -d -1 -p cbr -e 512 -c 2 -a 0 -i 9 -k AGT
h -t 10.509788067 -s 0 -d -1 -p cbr -e 512 -c 2 -a 0 -i 9 -k AGT
n -t 11.000000 -s 0 -x 156.380000 -y 151.650000 -U -0.460000 -V 0.000000 -T 1.000000
n -t 11.000000 -s 1 -x 599.550000 -y 303.320000 -U 2.512417 -V 5.886235 -T 0.835848
n -t 11.000000 -s 2 -x 758.690000 -y 751.650000 -U -2.250000 -V 0.000000 -T 1.008889
n -t 11.000000 -s 3 -x 1.650000 -y 552.330000 -U 0.000000 -V -17.300000 -T 1.000578
n -t 11.000000 -s 4 -x 5.760000 -y 751.650000 -U -0.010000 -V 0.000000 -T 1.000000
n -t 11.000000 -s 5 -x 751.650000 -y 407.240000 -U 0.000000 -V 17.320000 -T 0.999423
n -t 11.000000 -s 6 -x 20.950000 -y 151.650000 -U -9.250000 -V 0.000000 -T 1.000000
n -t 11.000000 -s 7 -x 833.910000 -y 901.650000 -U -19.560000 -V 0.000000 -T 1.000511
n -t 11.000000 -s 8 -x 532.910000 -y 451.650000 -U -19.890000 -V 0.000000 -T 1.000000
n -t 11.000000 -s 9 -x 756.180000 -y 301.650000 -U -0.310000 -V 0.000000 -T 1.000000
+ -t 11.528436862 -s 0 -d -1 -p cbr -e 512 -c 2 -a 0 -i 10 -k AGT 
- -t 11.528436862 -s 0 -d -1 -p cbr -e 512 -c 2 -a 0 -i 10 -k AGT
h -t 11.528436862 -s 0 -d -1 -p cbr -e 512 -c 2 -a 0 -i 10 -k AGT
n -t 12.000000 -s 0 -x 155.920000 -y 151.650000 -U -0.160000 -V 0.000000 -T 0.937500
n -t 12.000000 -s 1 -x 601.650000 -y 308.240000 -U 0.000000 -V 8.200000 -T 0.998780
n -t 12.000000 -s 2 -x 756.440000 -y 751.650000 -U -0.660000 -V 0.000000 -T 1.015152
n -t 12.000000 -s 3 -x 1.650000 -y 535.030000 -U 0.000000 -V -19.530000 -T 1.000000
n -t 12.000000 -s 4 -x 5.750000 -y 751.650000 -U 0.000000 -V 0.000000 -T 0.000000
n -t 12.000000 -s 5 -x 751.650000 -y 424.550000 -U 0.000000 -V 12.820000 -T 1.000000
n -t 12.000000 -s 6 -x 11.700000 -y 151.650000 -U -4.770000 -V 0.000000 -T 1.000000
n -t 12.000000 -s 7 -x 814.350000 -y 901.650000 -U -19.720000 -V 0.000000 -T 1.000507
n -t 12.000000 -s 8 -x 513.020000 -y 451.650000 -U -19.120000 -V 0.000000 -T 1.000000
n -t 12.000000 -s 9 -x 755.870000 -y 301.650000 -U -0.100000 -V 0.000000 -T 0.900000
+ -t 12.494552798 -s 0 -d -1 -p cbr -e 512 -c 2 -a 0 -i 11 -k AGT 
- -t 12.494552798 -s 0 -d -1 -p cbr -e 512 -c 2 -a 0 -i 11 -k AGT
h -t 12.494552798 -s 0 -d -1 -p cbr -e 512 -c 2 -a 0 -i 11 -k AGT
n -t 13.000000 -s 0 -x 155.770000 -y 151.650000 -U -0.010000 -V 0.000000 -T 2.000000
n -t 13.000000 -s 1 -x 601.650000 -y 316.430000 -U 0.000000 -V 10.660000 -T 1.000938
n -t 13.000000 -s 2 -x 755.780000 -y 751.650000 -U -0.010000 -V 0.000000 -T 2.000000
n -t 13.000000 -s 3 -x 1.650000 -y 515.500000 -U 0.000000 -V -19.530000 -T 1.000000
n -t 13.000000 -s 4 -x 5.750000 -y 751.650000 -U 0.000000 -V 0.000000 -T 0.000000
n -t 13.000000 -s 5 -x 751.650000 -y 437.370000 -U -0.060071 -V 8.319783 -T 0.998824
n -t 13.000000 -s 6 -x 6.930000 -y 151.650000 -U -0.940000 -V 0.000000 -T 0.989362
n -t 13.000000 -s 7 -x 794.630000 -y 901.650000 -U -16.740000 -V 0.000000 -T 1.000597
n -t 13.000000 -s 8 -x 493.900000 -y 451.650000 -U -16.260000 -V 0.000000 -T 1.000000
n -t 13.000000 -s 9 -x 755.780000 -y 301.650000 -U -0.020000 -V 0.000000 -T 1.500000
+ -t 13.686859630 -s 0 -d -1 -p cbr -e 512 -c 2 -a 0 -i 12 -k AGT 
- -t 13.686859630 -s 0 -d -1 -p cbr -e 512 -c 2 -a 0 -i 12 -k AGT
h -t 13.686859630 -s 0 -d -1 -p cbr -e 512 -c 2 -a 0 -i 12 -k AGT
n -t 14.000000 -s 0 -x 155.760000 -y 151.650000 -U -0.000000 -V 0.000000 -T 0.000000
n -t 14.000000 -s 1 -x 601.650000 -y 327.090000 -U 0.000000 -V 12.520000 -T 1.000000
n -t 14.000000 -s 2 -x 755.770000 -y 751.650000 -U -0.000000 -V 0.000000 -T 0.000000
n -t 14.000000 -s 3 -x 1.650000 -y 495.970000 -U 0.000000 -V -19.450000 -T 1.000000
n -t 14.000000 -s 4 -x 5.750000 -y 751.650000 -U 0.000000 -V 0.000000 -T 0.000000
n -t 14.000000 -s 5 -x 751.590000 -y 445.680000 -U -1.091118 -V 3.660855 -T 0.980645
n -t 14.000000 -s 6 -x 6.000000 -y 151.650000 -U -0.190000 -V 0.000000 -T 1.000000
n -t 14.000000 -s 7 -x 777.890000 -y 901.650000 -U -12.900000 -V 0.000000 -T 1.000775
n -t 14.000000 -s 8 -x 477.640000 -y 451.650000 -U -11.760000 -V 0.000000 -T 0.999150
n -t 14.000000 -s 9 -x 755.760000 -y 301.650000 -U -0.000000 -V 0.000000 -T 0.000000
+ -t 14.000000000 -s 0 -d -1 -p AODV -e 48 -c 2 -a 0 -i 0 -k RTR 
- -t 14.000000000 -s 0 -d -1 -p AODV -e 48 -c 2 -a 0 -i 0 -k RTR
h -t 14.000000000 -s 0 -d -1 -p AODV -e 48 -c 2 -a 0 -i 0 -k RTR
+ -t 14.000475000 -s 0 -d -1 -p AODV -e 106 -c 2 -a 0 -i 0 -k MAC 
- -t 14.000475000 -s 0 -d -1 -p AODV -e 106 -c 2 -a 0 -i 0 -k MAC
h -t 14.000475000 -s 0 -d -1 -p AODV -e 106 -c 2 -a 0 -i 0 -k MAC
r -t 14.001323499 -s 6 -d -1 -p AODV -e 48 -c 2 -a 0 -i 0 -k MAC
r -t 14.001348499 -s 6 -d -1 -p AODV -e 48 -c 2 -a 0 -i 0 -k RTR
+ -t 14.003760755 -s 6 -d -1 -p AODV -e 48 -c 2 -a 0 -i 0 -k RTR 
- -t 14.003760755 -s 6 -d -1 -p AODV -e 48 -c 2 -a 0 -i 0 -k RTR
h -t 14.003760755 -s 6 -d -1 -p AODV -e 48 -c 2 -a 0 -i 0 -k RTR
+ -t 14.003875755 -s 6 -d -1 -p AODV -e 106 -c 2 -a 0 -i 0 -k MAC 
- -t 14.003875755 -s 6 -d -1 -p AODV -e 106 -c 2 -a 0 -i 0 -k MAC
h -t 14.003875755 -s 6 -d -1 -p AODV -e 106 -c 2 -a 0 -i 0 -k MAC
r -t 14.004724255 -s 0 -d -1 -p AODV -e 48 -c 2 -a 0 -i 0 -k MAC
r -t 14.004749255 -s 0 -d -1 -p AODV -e 48 -c 2 -a 0 -i 0 -k RTR
n -t 15.000000 -s 0 -x 155.760000 -y 151.650000 -U -0.000000 -V 0.000000 -T 0.000000
n -t 15.000000 -s 1 -x 601.650000 -y 339.610000 -U 0.000000 -V 14.750000 -T 1.000000
n -t 15.000000 -s 2 -x 755.770000 -y 751.650000 -U -0.000000 -V 0.000000 -T 0.000000
n -t 15.000000 -s 3 -x 1.650000 -y 476.520000 -U 0.000000 -V -19.870000 -T 0.999497
n -t 15.000000 -s 4 -x 5.750000 -y 751.650000 -U 0.000000 -V 0.000000 -T 0.000000
n -t 15.000000 -s 5 -x 750.520000 -y 449.270000 -U -4.929177 -V 2.417294 -T 0.951477
n -t 15.000000 -s 6 -x 5.810000 -y 151.650000 -U -0.040000 -V 0.000000 -T 1.000000
n -t 15.000000 -s 7 -x 764.990000 -y 901.650000 -U -9.030000 -V 0.000000 -T 1.001107
n -t 15.000000 -s 8 -x 465.890000 -y 451.650000 -U -7.260000 -V 0.000000 -T 1.000000
n -t 15.000000 -s 9 -x 755.760000 -y 301.650000 -U -0.000000 -V 0.000000 -T 0.000000
+ -t 15.048926911 -s 0 -d -1 -p cbr -e 512 -c 2 -a 0 -i 13 -k AGT 
- -t 15.048926911 -s 0 -d -1 -p cbr -e 512 -c 2 -a 0 -i 13 -k AGT
h -t 15.048926911 -s 0 -d -1 -p cbr -e 512 -c 2 -a 0 -i 13 -k AGT
n -t 16.000000 -s 0 -x 155.760000 -y 151.650000 -U -0.000000 -V 0.000000 -T 0.000000
n -t 16.000000 -s 1 -x 601.650000 -y 354.360000 -U 0.000000 -V 16.470000 -T 1.000000
n -t 16.000000 -s 2 -x 755.770000 -y 751.650000 -U -0.000000 -V 0.000000 -T 0.000000
n -t 16.000000 -s 3 -x 1.650000 -y 456.660000 -U 0.000000 -V -19.520000 -T 1.000000
n -t 16.000000 -s 4 -x 5.750000 -y 751.650000 -U 0.000000 -V 0.000000 -T 0.000000
n -t 16.000000 -s 5 -x 745.830000 -y 451.570000 -U -6.819531 -V 0.079994 -T 1.000069
n -t 16.000000 -s 6 -x 5.770000 -y 151.650000 -U -0.010000 -V 0.000000 -T 1.000000
n -t 16.000000 -s 7 -x 755.960000 -y 901.650000 -U -4.741228 -V -0.810466 -T 0.987086
n -t 16.000000 -s 8 -x 458.630000 -y 451.650000 -U -2.820000 -V 0.000000 -T 1.000000
n -t 16.000000 -s 9 -x 755.760000 -y 301.650000 -U -0.000000 -V 0.000000 -T 0.000000
+ -t 16.311158804 -s 0 -d -1 -p cbr -e 512 -c 2 -a 0 -i 14 -k AGT 
- -t 16.311158804 -s 0 -d -1 -p cbr -e 512 -c 2 -a 0 -i 14 -k AGT
h -t 16.311158804 -s 0 -d -1 -p cbr -e 512 -c 2 -a 0 -i 14 -k AGT
n -t 17.000000 -s 0 -x 155.760000 -y 151.650000 -U -0.000000 -V 0.000000 -T 0.000000
n -t 17.000000 -s 1 -x 601.650000 -y 370.830000 -U 0.000000 -V 18.310000 -T 1.000000
n -t 17.000000 -s 2 -x 755.770000 -y 751.650000 -U -0.000000 -V 0.000000 -T 0.000000
n -t 17.000000 -s 3 -x 1.650000 -y 437.140000 -U 0.000000 -V -19.640000 -T 1.000000
n -t 17.000000 -s 4 -x 5.750000 -y 751.650000 -U 0.000000 -V 0.000000 -T 0.000000
n -t 17.000000 -s 5 -x 739.010469 -y 451.649994 -U -8.530000 -V 0.000006 -T 1.000055
n -t 17.000000 -s 6 -x 5.760000 -y 151.650000 -U -0.010000 -V 0.000000 -T 1.000000
n -t 17.000000 -s 7 -x 751.280000 -y 900.850000 -U -3.111699 -V -6.180917 -T 0.941608
n -t 17.000000 -s 8 -x 455.810000 -y 451.650000 -U -0.040000 -V 0.000000 -T 1.000000
n -t 17.000000 -s 9 -x 755.760000 -y 301.650000 -U -0.000000 -V 0.000000 -T 0.000000
+ -t 17.716104273 -s 0 -d -1 -p cbr -e 512 -c 2 -a 0 -i 15 -k AGT 
- -t 17.716104273 -s 0 -d -1 -p cbr -e 512 -c 2 -a 0 -i 15 -k AGT
h -t 17.716104273 -s 0 -d -1 -p cbr -e 512 -c 2 -a 0 -i 15 -k AGT
n -t 18.000000 -s 0 -x 155.760000 -y 151.650000 -U -0.000000 -V 0.000000 -T 0.000000
n -t 18.000000 -s 1 -x 601.650000 -y 389.140000 -U 0.000000 -V 18.770000 -T 1.000000
n -t 18.000000 -s 2 -x 755.770000 -y 751.650000 -U -0.000000 -V 0.000000 -T 0.000000
n -t 18.000000 -s 3 -x 1.650000 -y 417.500000 -U 0.000000 -V -19.290000 -T 1.000000
n -t 18.000000 -s 4 -x 5.750000 -y 751.650000 -U 0.000000 -V 0.000000 -T 0.000000
n -t 18.000000 -s 5 -x 730.480469 -y 451.650000 -U -11.110000 -V 0.000000 -T 1.000042
n -t 18.000000 -s 6 -x 5.750000 -y 151.650000 -U 0.000000 -V 0.000000 -T 0.000000
n -t 18.000000 -s 7 -x 748.350000 -y 895.030000 -U 0.000000 -V -8.250000 -T 0.998788
n -t 18.000000 -s 8 -x 455.770000 -y 451.650000 -U -0.010000 -V 0.000000 -T 1.000000
n -t 18.000000 -s 9 -x 755.760000 -y 301.650000 -U -0.000000 -V 0.000000 -T 0.000000
+ -t 18.621623350 -s 0 -d -1 -p cbr -e 512 -c 2 -a 0 -i 16 -k AGT 
- -t 18.621623350 -s 0 -d -1 -p cbr -e 512 -c 2 -a 0 -i 16 -k AGT
h -t 18.621623350 -s 0 -d -1 -p cbr -e 512 -c 2 -a 0 -i 16 -k AGT
n -t 19.000000 -s 0 -x 155.760000 -y 151.650000 -U -0.000000 -V 0.000000 -T 0.000000
n -t 19.000000 -s 1 -x 601.650000 -y 407.910000 -U 0.000000 -V 19.390000 -T 1.000000
n -t 19.000000 -s 2 -x 755.770000 -y 751.650000 -U -0.000000 -V 0.000000 -T 0.000000
n -t 19.000000 -s 3 -x 1.650000 -y 398.210000 -U 0.000000 -V -19.560000 -T 1.000000
n -t 19.000000 -s 4 -x 5.750000 -y 751.650000 -U 0.000000 -V 0.000000 -T 0.000000
n -t 19.000000 -s 5 -x 719.370469 -y 451.650000 -U -13.710000 -V 0.000000 -T 1.000764
n -t 19.000000 -s 6 -x 5.750000 -y 151.650000 -U 0.000000 -V 0.000000 -T 0.000000
n -t 19.000000 -s 7 -x 748.350000 -y 886.790000 -U 0.000000 -V -9.990000 -T 1.000000
n -t 19.000000 -s 8 -x 455.760000 -y 451.650000 -U -0.000000 -V 0.000000 -T 0.000000
n -t 19.000000 -s 9 -x 755.760000 -y 301.650000 -U -0.000000 -V 0.000000 -T 0.000000
+ -t 19.230821822 -s 0 -d -1 -p cbr -e 512 -c 2 -a 0 -i 17 -k AGT 
- -t 19.230821822 -s 0 -d -1 -p cbr -e 512 -c 2 -a 0 -i 17 -k AGT
h -t 19.230821822 -s 0 -d -1 -p cbr -e 512 -c 2 -a 0 -i 17 -k AGT
n -t 20.000000 -s 0 -x 155.760000 -y 151.650000 -U -0.000000 -V 0.000000 -T 0.000000
n -t 20.000000 -s 1 -x 601.650000 -y 427.300000 -U 0.000000 -V 18.890000 -T 1.000529
n -t 20.000000 -s 2 -x 755.770000 -y 751.650000 -U -0.000000 -V 0.000000 -T 0.000000
n -t 20.000000 -s 3 -x 1.650000 -y 378.650000 -U 0.000000 -V -18.930000 -T 1.000000
n -t 20.000000 -s 4 -x 5.750000 -y 751.650000 -U 0.000000 -V 0.000000 -T 0.000000
n -t 20.000000 -s 5 -x 705.660469 -y 451.650000 -U -15.800000 -V 0.000000 -T 1.000663
n -t 20.000000 -s 6 -x 5.750000 -y 151.650000 -U 0.000000 -V 0.000000 -T 0.000000
n -t 20.000000 -s 7 -x 748.350000 -y 876.800000 -U 0.000000 -V -11.290000 -T 1.000886
n -t 20.000000 -s 8 -x 455.760000 -y 451.650000 -U -0.000000 -V 0.000000 -T 0.000000
n -t 20.000000 -s 9 -x 755.760000 -y 301.650000 -U -0.000000 -V 0.000000 -T 0.000000
+ -t 20.135029350 -s 0 -d -1 -p cbr -e 512 -c 2 -a 0 -i 18 -k AGT 
- -t 20.135029350 -s 0 -d -1 -p cbr -e 512 -c 2 -a 0 -i 18 -k AGT
h -t 20.135029350 -s 0 -d -1 -p cbr -e 512 -c 2 -a 0 -i 18 -k AGT
+ -t 20.822394592 -s 0 -d -1 -p cbr -e 512 -c 2 -a 0 -i 19 -k AGT 
- -t 20.822394592 -s 0 -d -1 -p cbr -e 512 -c 2 -a 0 -i 19 -k AGT
h -t 20.822394592 -s 0 -d -1 -p cbr -e 512 -c 2 -a 0 -i 19 -k AGT
n -t 21.000000 -s 0 -x 155.760000 -y 151.650000 -U -0.000000 -V 0.000000 -T 0.000000
n -t 21.000000 -s 1 -x 601.650000 -y 446.190000 -U 0.000000 -V 19.580000 -T 1.000000
n -t 21.000000 -s 2 -x 755.770000 -y 751.650000 -U -0.000000 -V 0.000000 -T 0.000000
n -t 21.000000 -s 3 -x 1.650000 -y 359.720000 -U 0.000000 -V -19.730000 -T 1.000000
n -t 21.000000 -s 4 -x 5.750000 -y 751.650000 -U 0.000000 -V 0.000000 -T 0.000000
n -t 21.000000 -s 5 -x 689.860469 -y 451.650000 -U -18.200000 -V 0.000000 -T 1.000575
n -t 21.000000 -s 6 -x 5.750000 -y 151.650000 -U 0.000000 -V 0.000000 -T 0.000000
n -t 21.000000 -s 7 -x 748.350000 -y 865.510000 -U 0.000000 -V -13.310000 -T 1.000751
n -t 21.000000 -s 8 -x 455.760000 -y 451.650000 -U -0.000000 -V 0.000000 -T 0.000000
n -t 21.000000 -s 9 -x 755.760000 -y 301.650000 -U -0.000000 -V 0.000000 -T 0.000000
d -t 21.500000000 -s 0 -d -1 -p cbr -e 532 -c 2 -a 0 -i 0 -k RTR
d -t 21.500000000 -s 0 -d -1 -p cbr -e 532 -c 2 -a 0 -i 1 -k RTR
d -t 21.500000000 -s 0 -d -1 -p cbr -e 532 -c 2 -a 0 -i 2 -k RTR
d -t 21.500000000 -s 0 -d -1 -p cbr -e 532 -c 2 -a 0 -i 3 -k RTR
d -t 21.500000000 -s 0 -d -1 -p cbr -e 532 -c 2 -a 0 -i 4 -k RTR
d -t 21.500000000 -s 0 -d -1 -p cbr -e 532 -c 2 -a 0 -i 5 -k RTR
d -t 21.500000000 -s 0 -d -1 -p cbr -e 532 -c 2 -a 0 -i 6 -k RTR
d -t 21.500000000 -s 0 -d -1 -p cbr -e 532 -c 2 -a 0 -i 7 -k RTR
d -t 21.500000000 -s 0 -d -1 -p cbr -e 532 -c 2 -a 0 -i 8 -k RTR
d -t 21.500000000 -s 0 -d -1 -p cbr -e 532 -c 2 -a 0 -i 9 -k RTR
d -t 21.500000000 -s 0 -d -1 -p cbr -e 532 -c 2 -a 0 -i 10 -k RTR
d -t 21.500000000 -s 0 -d -1 -p cbr -e 532 -c 2 -a 0 -i 11 -k RTR
d -t 21.500000000 -s 0 -d -1 -p cbr -e 532 -c 2 -a 0 -i 12 -k RTR
d -t 21.500000000 -s 0 -d -1 -p cbr -e 532 -c 2 -a 0 -i 13 -k RTR
d -t 21.500000000 -s 0 -d -1 -p cbr -e 532 -c 2 -a 0 -i 14 -k RTR
d -t 21.500000000 -s 0 -d -1 -p cbr -e 532 -c 2 -a 0 -i 15 -k RTR
d -t 21.500000000 -s 0 -d -1 -p cbr -e 532 -c 2 -a 0 -i 16 -k RTR
d -t 21.500000000 -s 0 -d -1 -p cbr -e 532 -c 2 -a 0 -i 17 -k RTR
d -t 21.500000000 -s 0 -d -1 -p cbr -e 532 -c 2 -a 0 -i 18 -k RTR
d -t 21.500000000 -s 0 -d -1 -p cbr -e 532 -c 2 -a 0 -i 19 -k RTR
n -t 22.000000 -s 0 -x 155.760000 -y 151.650000 -U -0.000000 -V 0.000000 -T 0.000000
n -t 22.000000 -s 1 -x 601.650000 -y 465.770000 -U 0.000000 -V 19.870000 -T 1.000503
n -t 22.000000 -s 2 -x 755.770000 -y 751.650000 -U -0.000000 -V 0.000000 -T 0.000000
n -t 22.000000 -s 3 -x 1.650000 -y 339.990000 -U 0.000000 -V -16.690000 -T 1.000000
n -t 22.000000 -s 4 -x 5.750000 -y 751.650000 -U 0.000000 -V 0.000000 -T 0.000000
n -t 22.000000 -s 5 -x 671.660469 -y 451.650000 -U -18.970000 -V 0.000000 -T 1.000552
n -t 22.000000 -s 6 -x 5.750000 -y 151.650000 -U 0.000000 -V 0.000000 -T 0.000000
n -t 22.000000 -s 7 -x 748.350000 -y 852.200000 -U 0.000000 -V -15.760000 -T 1.000635
n -t 22.000000 -s 8 -x 455.760000 -y 451.650000 -U -0.000000 -V 0.000000 -T 0.000000
n -t 22.000000 -s 9 -x 755.760000 -y 301.650000 -U -0.000000 -V 0.000000 -T 0.000000
+ -t 22.209838138 -s 0 -d -1 -p cbr -e 512 -c 2 -a 0 -i 20 -k AGT 
- -t 22.209838138 -s 0 -d -1 -p cbr -e 512 -c 2 -a 0 -i 20 -k AGT
h -t 22.209838138 -s 0 -d -1 -p cbr -e 512 -c 2 -a 0 -i 20 -k AGT
n -t 23.000000 -s 0 -x 155.760000 -y 151.650000 -U -0.000000 -V 0.000000 -T 0.000000
n -t 23.000000 -s 1 -x 601.650000 -y 485.640000 -U 0.000000 -V 19.690000 -T 1.000508
n -t 23.000000 -s 2 -x 755.770000 -y 751.650000 -U -0.000000 -V 0.000000 -T 0.000000
n -t 23.000000 -s 3 -x 1.650000 -y 323.300000 -U 0.000000 -V -12.190000 -T 0.999180
n -t 23.000000 -s 4 -x 5.750000 -y 751.650000 -U 0.000000 -V 0.000000 -T 0.000000
n -t 23.000000 -s 5 -x 652.690469 -y 451.650000 -U -17.780000 -V 0.000000 -T 1.000589
n -t 23.000000 -s 6 -x 5.750000 -y 151.650000 -U 0.000000 -V 0.000000 -T 0.000000
n -t 23.000000 -s 7 -x 748.350000 -y 836.440000 -U 0.000000 -V -18.120000 -T 1.000552
n -t 23.000000 -s 8 -x 455.760000 -y 451.650000 -U -0.000000 -V 0.000000 -T 0.000000
n -t 23.000000 -s 9 -x 755.760000 -y 301.650000 -U -0.000000 -V 0.000000 -T 0.000000
+ -t 23.656103091 -s 0 -d -1 -p cbr -e 512 -c 2 -a 0 -i 21 -k AGT 
- -t 23.656103091 -s 0 -d -1 -p cbr -e 512 -c 2 -a 0 -i 21 -k AGT
h -t 23.656103091 -s 0 -d -1 -p cbr -e 512 -c 2 -a 0 -i 21 -k AGT
n -t 24.000000 -s 0 -x 155.760000 -y 151.650000 -U -0.000000 -V 0.000000 -T 0.000000
n -t 24.000000 -s 1 -x 601.650000 -y 505.330000 -U 0.000000 -V 19.030000 -T 1.000000
n -t 24.000000 -s 2 -x 755.770000 -y 751.650000 -U -0.000000 -V 0.000000 -T 0.000000
n -t 24.000000 -s 3 -x 1.650000 -y 311.120000 -U -0.220193 -V -7.906935 -T 0.999123
n -t 24.000000 -s 4 -x 5.750000 -y 751.650000 -U 0.000000 -V 0.000000 -T 0.000000
n -t 24.000000 -s 5 -x 634.910469 -y 451.650000 -U -13.300000 -V 0.000000 -T 1.000787
n -t 24.000000 -s 6 -x 5.750000 -y 151.650000 -U 0.000000 -V 0.000000 -T 0.000000
n -t 24.000000 -s 7 -x 748.350000 -y 818.320000 -U 0.000000 -V -19.950000 -T 1.000501
n -t 24.000000 -s 8 -x 455.760000 -y 451.650000 -U -0.000000 -V 0.000000 -T 0.000000
n -t 24.000000 -s 9 -x 755.760000 -y 301.650000 -U -0.000000 -V 0.000000 -T 0.000000
n -t 25.000000 -s 0 -x 155.760000 -y 151.650000 -U -0.000000 -V 0.000000 -T 0.000000
n -t 25.000000 -s 1 -x 601.650000 -y 524.360000 -U 0.000000 -V 18.970000 -T 1.000000
n -t 25.000000 -s 2 -x 755.770000 -y 751.650000 -U -0.000000 -V 0.000000 -T 0.000000
n -t 25.000000 -s 3 -x 1.430000 -y 303.220000 -U 6.150572 -V -7.305680 -T 0.666605
n -t 25.000000 -s 4 -x 5.750000 -y 751.650000 -U 0.000000 -V 0.000000 -T 0.000000
n -t 25.000000 -s 5 -x 621.610469 -y 451.650000 -U -9.670000 -V 0.000000 -T 1.001083
n -t 25.000000 -s 6 -x 5.750000 -y 151.650000 -U 0.000000 -V 0.000000 -T 0.000000
n -t 25.000000 -s 7 -x 748.350000 -y 798.370000 -U 0.000000 -V -19.440000 -T 1.000514
n -t 25.000000 -s 8 -x 455.760000 -y 451.650000 -U -0.000000 -V 0.000000 -T 0.000000
n -t 25.000000 -s 9 -x 755.760000 -y 301.650000 -U -0.000000 -V 0.000000 -T 0.000000
+ -t 25.047450913 -s 0 -d -1 -p cbr -e 512 -c 2 -a 0 -i 22 -k AGT 
- -t 25.047450913 -s 0 -d -1 -p cbr -e 512 -c 2 -a 0 -i 22 -k AGT
h -t 25.047450913 -s 0 -d -1 -p cbr -e 512 -c 2 -a 0 -i 22 -k AGT
+ -t 25.659482229 -s 0 -d -1 -p cbr -e 512 -c 2 -a 0 -i 23 -k AGT 
- -t 25.659482229 -s 0 -d -1 -p cbr -e 512 -c 2 -a 0 -i 23 -k AGT
h -t 25.659482229 -s 0 -d -1 -p cbr -e 512 -c 2 -a 0 -i 23 -k AGT
n -t 26.000000 -s 0 -x 155.760000 -y 151.650000 -U -0.000000 -V 0.000000 -T 0.000000
n -t 26.000000 -s 1 -x 601.650000 -y 543.330000 -U 0.000000 -V 19.700000 -T 1.000000
n -t 26.000000 -s 2 -x 755.770000 -y 751.650000 -U -0.000000 -V 0.000000 -T 0.000000