M 0.00000 0 (598.35, 770.06, 0.00), (598.35, 770.06), 20.00
s 0.000000000 _0_ RTR  --- 0 AODV 44 [0 0 0 0] ------- [0:255 -1:255 1 0] [0x1 1 [0 2] 4.000000] (HELLO)
s 0.000000000 _1_ RTR  --- 0 AODV 44 [0 0 0 0] ------- [1:255 -1:255 1 0] [0x1 1 [1 2] 4.000000] (HELLO)
s 0.000000000 _2_ RTR  --- 0 AODV 44 [0 0 0 0] ------- [2:255 -1:255 1 0] [0x1 1 [2 2] 4.000000] (HELLO)
s 0.000000000 _3_ RTR  --- 0 AODV 44 [0 0 0 0] ------- [3:255 -1:255 1 0] [0x1 1 [3 2] 4.000000] (HELLO)
s 0.000000000 _4_ RTR  --- 0 AODV 44 [0 0 0 0] ------- [4:255 -1:255 1 0] [0x1 1 [4 2] 4.000000] (HELLO)
s 0.000000000 _5_ RTR  --- 0 AODV 44 [0 0 0 0] ------- [5:255 -1:255 1 0] [0x1 1 [5 2] 4.000000] (HELLO)
s 0.000000000 _6_ RTR  --- 0 AODV 44 [0 0 0 0] ------- [6:255 -1:255 1 0] [0x1 1 [6 2] 4.000000] (HELLO)
s 0.000000000 _7_ RTR  --- 0 AODV 44 [0 0 0 0] ------- [7:255 -1:255 1 0] [0x1 1 [7 2] 4.000000] (HELLO)
s 0.000000000 _8_ RTR  --- 0 AODV 44 [0 0 0 0] ------- [8:255 -1:255 1 0] [0x1 1 [8 2] 4.000000] (HELLO)
s 0.000000000 _9_ RTR  --- 0 AODV 44 [0 0 0 0] ------- [9:255 -1:255 1 0] [0x1 1 [9 2] 4.000000] (HELLO)
r 0.000956183 _4_ RTR  --- 0 AODV 44 [0 ffffffff 2 800] ------- [2:255 -1:255 1 0] [0x1 1 [2 2] 4.000000] (HELLO)
r 0.001076470 _0_ RTR  --- 0 AODV 44 [0 ffffffff 7 800] ------- [7:255 -1:255 1 0] [0x1 1 [7 2] 4.000000] (HELLO)
r 0.001076832 _3_ RTR  --- 0 AODV 44 [0 ffffffff 7 800] ------- [7:255 -1:255 1 0] [0x1 1 [7 2] 4.000000] (HELLO)
r 0.001942366 _2_ RTR  --- 0 AODV 44 [0 ffffffff 4 800] ------- [4:255 -1:255 1 0] [0x1 1 [4 2] 4.000000] (HELLO)
r 0.001942960 _1_ RTR  --- 0 AODV 44 [0 ffffffff 4 800] ------- [4:255 -1:255 1 0] [0x1 1 [4 2] 4.000000] (HELLO)
r 0.002042941 _7_ RTR  --- 0 AODV 44 [0 ffffffff 0 800] ------- [0:255 -1:255 1 0] [0x1 1 [0 2] 4.000000] (HELLO)
r 0.003009476 _5_ RTR  --- 0 AODV 44 [0 ffffffff 1 800] ------- [1:255 -1:255 1 0] [0x1 1 [1 2] 4.000000] (HELLO)
r 0.003009736 _4_ RTR  --- 0 AODV 44 [0 ffffffff 1 800] ------- [1:255 -1:255 1 0] [0x1 1 [1 2] 4.000000] (HELLO)
r 0.004195993 _1_ RTR  --- 0 AODV 44 [0 ffffffff 5 800] ------- [5:255 -1:255 1 0] [0x1 1 [5 2] 4.000000] (HELLO)
r 0.004786243 _7_ RTR  --- 0 AODV 44 [0 ffffffff 3 800] ------- [3:255 -1:255 1 0] [0x1 1 [3 2] 4.000000] (HELLO)
r 0.006137152 _7_ RTR  --- 0 AODV 44 [0 ffffffff 9 800] ------- [9:255 -1:255 1 0] [0x1 1 [9 2] 4.000000] (HELLO)
r 0.006137398 _0_ RTR  --- 0 AODV 44 [0 ffffffff 9 800] ------- [9:255 -1:255 1 0] [0x1 1 [9 2] 4.000000] (HELLO)
s 0.750169789 _0_ RTR  --- 0 AODV 44 [0 0 0 0] ------- [0:255 -1:255 1 0] [0x1 1 [0 6] 4.000000] (HELLO)
r 0.751126259 _7_ RTR  --- 0 AODV 44 [0 ffffffff 0 800] ------- [0:255 -1:255 1 0] [0x1 1 [0 6] 4.000000] (HELLO)
r 0.751126564 _9_ RTR  --- 0 AODV 44 [0 ffffffff 0 800] ------- [0:255 -1:255 1 0] [0x1 1 [0 6] 4.000000] (HELLO)
s 0.757102330 _2_ RTR  --- 0 AODV 44 [0 0 0 0] ------- [2:255 -1:255 1 0] [0x1 1 [2 4] 4.000000] (HELLO)
r 0.758158513 _4_ RTR  --- 0 AODV 44 [0 ffffffff 2 800] ------- [2:255 -1:255 1 0] [0x1 1 [2 4] 4.000000] (HELLO)
s 0.794061336 _3_ RTR  --- 0 AODV 44 [0 0 0 0] ------- [3:255 -1:255 1 0] [0x1 1 [3 4] 4.000000] (HELLO)
r 0.795178168 _7_ RTR  --- 0 AODV 44 [0 ffffffff 3 800] ------- [3:255 -1:255 1 0] [0x1 1 [3 4] 4.000000] (HELLO)
s 0.867300876 _8_ RTR  --- 0 AODV 44 [0 0 0 0] ------- [8:255 -1:255 1 0] [0x1 1 [8 2] 4.000000] (HELLO)
s 0.906480886 _6_ RTR  --- 0 AODV 44 [0 0 0 0] ------- [6:255 -1:255 1 0] [0x1 1 [6 2] 4.000000] (HELLO)
s 0.970586691 _4_ RTR  --- 0 AODV 44 [0 0 0 0] ------- [4:255 -1:255 1 0] [0x1 1 [4 6] 4.000000] (HELLO)
r 0.972002874 _2_ RTR  --- 0 AODV 44 [0 ffffffff 4 800] ------- [4:255 -1:255 1 0] [0x1 1 [4 6] 4.000000] (HELLO)
r 0.972003468 _1_ RTR  --- 0 AODV 44 [0 ffffffff 4 800] ------- [4:255 -1:255 1 0] [0x1 1 [4 6] 4.000000] (HELLO)
M 1.00000 0 (598.35, 770.06, 0.00), (598.35, 750.99), 19.07
M 1.00000 1 (748.35, 138.86, 0.00), (748.35, 138.86), 20.00
s 1.000000000 _0_ AGT  --- 0 cbr 1000 [0 0 0 0] ------- [0:0 1:0 32 0] [0] 0 0
r 1.000000000 _0_ RTR  --- 0 cbr 1000 [0 0 0 0] ------- [0:0 1:0 32 0] [0] 0 0
s 1.000000000 _0_ RTR  --- 0 AODV 48 [0 0 0 0] ------- [0:255 -1:255 30 0] [0x2 1 1 [1 0] [0 8]] (REQUEST)
r 1.001128470 _7_ RTR  --- 0 AODV 48 [0 ffffffff 0 800] ------- [0:255 -1:255 30 0] [0x2 1 1 [1 0] [0 8]] (REQUEST)
r 1.001128775 _9_ RTR  --- 0 AODV 48 [0 ffffffff 0 800] ------- [0:255 -1:255 30 0] [0x2 1 1 [1 0] [0 8]] (REQUEST)
s 1.006576995 _9_ RTR  --- 0 AODV 48 [0 ffffffff 0 800] ------- [9:255 -1:255 29 0] [0x2 2 1 [1 0] [0 8]] (REQUEST)
r 1.007745524 _7_ RTR  --- 0 AODV 48 [0 ffffffff 9 800] ------- [9:255 -1:255 29 0] [0x2 2 1 [1 0] [0 8]] (REQUEST)
r 1.007745770 _0_ RTR  --- 0 AODV 48 [0 ffffffff 9 800] ------- [9:255 -1:255 29 0] [0x2 2 1 [1 0] [0 8]] (REQUEST)
s 1.008115203 _7_ RTR  --- 0 AODV 48 [0 ffffffff 0 800] ------- [7:255 -1:255 29 0] [0x2 2 1 [1 0] [0 8]] (REQUEST)
r 1.009223673 _0_ RTR  --- 0 AODV 48 [0 ffffffff 7 800] ------- [7:255 -1:255 29 0] [0x2 2 1 [1 0] [0 8]] (REQUEST)
r 1.009223732 _9_ RTR  --- 0 AODV 48 [0 ffffffff 7 800] ------- [7:255 -1:255 29 0] [0x2 2 1 [1 0] [0 8]] (REQUEST)
r 1.009224035 _3_ RTR  --- 0 AODV 48 [0 ffffffff 7 800] ------- [7:255 -1:255 29 0] [0x2 2 1 [1 0] [0 8]] (REQUEST)
s 1.009499609 _3_ RTR  --- 0 AODV 48 [0 ffffffff 7 800] ------- [3:255 -1:255 28 0] [0x2 3 1 [1 0] [0 8]] (REQUEST)
r 1.010748441 _7_ RTR  --- 0 AODV 48 [0 ffffffff 3 800] ------- [3:255 -1:255 28 0] [0x2 3 1 [1 0] [0 8]] (REQUEST)
s 1.027940358 _1_ RTR  --- 0 AODV 44 [0 0 0 0] ------- [1:255 -1:255 1 0] [0x1 1 [1 6] 4.000000] (HELLO)
r 1.029156874 _5_ RTR  --- 0 AODV 44 [0 ffffffff 1 800] ------- [1:255 -1:255 1 0] [0x1 1 [1 6] 4.000000] (HELLO)
r 1.029157135 _4_ RTR  --- 0 AODV 44 [0 ffffffff 1 800] ------- [1:255 -1:255 1 0] [0x1 1 [1 6] 4.000000] (HELLO)
s 1.069432572 _9_ RTR  --- 0 AODV 44 [0 0 0 0] ------- [9:255 -1:255 1 0] [0x1 1 [9 4] 4.000000] (HELLO)
r 1.070829101 _7_ RTR  --- 0 AODV 44 [0 ffffffff 9 800] ------- [9:255 -1:255 1 0] [0x1 1 [9 4] 4.000000] (HELLO)
r 1.070829343 _0_ RTR  --- 0 AODV 44 [0 ffffffff 9 800] ------- [9:255 -1:255 1 0] [0x1 1 [9 4] 4.000000] (HELLO)
s 1.080000000 _0_ AGT  --- 1 cbr 1000 [0 0 0 0] ------- [0:0 1:0 32 0] [1] 0 0
r 1.080000000 _0_ RTR  --- 1 cbr 1000 [0 0 0 0] ------- [0:0 1:0 32 0] [1] 0 0
s 1.149577727 _5_ RTR  --- 0 AODV 44 [0 0 0 0] ------- [5:255 -1:255 1 0] [0x1 1 [5 4] 4.000000] (HELLO)
r 1.150794243 _1_ RTR  --- 0 AODV 44 [0 ffffffff 5 800] ------- [5:255 -1:255 1 0] [0x1 1 [5 4] 4.000000] (HELLO)
s 1.158238026 _7_ RTR  --- 0 AODV 44 [0 0 0 0] ------- [7:255 -1:255 1 0] [0x1 1 [7 8] 4.000000] (HELLO)
r 1.159274495 _0_ RTR  --- 0 AODV 44 [0 ffffffff 7 800] ------- [7:255 -1:255 1 0] [0x1 1 [7 8] 4.000000] (HELLO)
r 1.159274555 _9_ RTR  --- 0 AODV 44 [0 ffffffff 7 800] ------- [7:255 -1:255 1 0] [0x1 1 [7 8] 4.000000] (HELLO)
r 1.159274858 _3_ RTR  --- 0 AODV 44 [0 ffffffff 7 800] ------- [7:255 -1:255 1 0] [0x1 1 [7 8] 4.000000] (HELLO)
s 1.160000000 _0_ AGT  --- 2 cbr 1000 [0 0 0 0] ------- [0:0 1:0 32 0] [2] 0 0
r 1.160000000 _0_ RTR  --- 2 cbr 1000 [0 0 0 0] ------- [0:0 1:0 32 0] [2] 0 0
s 1.240000000 _0_ AGT  --- 3 cbr 1000 [0 0 0 0] ------- [0:0 1:0 32 0] [3] 0 0
r 1.240000000 _0_ RTR  --- 3 cbr 1000 [0 0 0 0] ------- [0:0 1:0 32 0] [3] 0 0
s 1.320000000 _0_ AGT  --- 4 cbr 1000 [0 0 0 0] ------- [0:0 1:0 32 0] [4] 0 0
r 1.320000000 _0_ RTR  --- 4 cbr 1000 [0 0 0 0] ------- [0:0 1:0 32 0] [4] 0 0
s 1.400000000 _0_ AGT  --- 5 cbr 1000 [0 0 0 0] ------- [0:0 1:0 32 0] [5] 0 0
r 1.400000000 _0_ RTR  --- 5 cbr 1000 [0 0 0 0] ------- [0:0 1:0 32 0] [5] 0 0
s 1.480000000 _0_ AGT  --- 6 cbr 1000 [0 0 0 0] ------- [0:0 1:0 32 0] [6] 0 0
r 1.480000000 _0_ RTR  --- 6 cbr 1000 [0 0 0 0] ------- [0:0 1:0 32 0] [6] 0 0
s 1.560000000 _0_ AGT  --- 7 cbr 1000 [0 0 0 0] ------- [0:0 1:0 32 0] [7] 0 0
r 1.560000000 _0_ RTR  --- 7 cbr 1000 [0 0 0 0] ------- [0:0 1:0 32 0] [7] 0 0
s 1.598660572 _3_ RTR  --- 0 AODV 44 [0 0 0 0] ------- [3:255 -1:255 1 0] [0x1 1 [3 4] 4.000000] (HELLO)
r 1.599657404 _7_ RTR  --- 0 AODV 44 [0 ffffffff 3 800] ------- [3:255 -1:255 1 0] [0x1 1 [3 4] 4.000000] (HELLO)
s 1.620782603 _0_ RTR  --- 0 AODV 44 [0 0 0 0] ------- [0:255 -1:255 1 0] [0x1 1 [0 8] 4.000000] (HELLO)
r 1.621759068 _7_ RTR  --- 0 AODV 44 [0 ffffffff 0 800] ------- [0:255 -1:255 1 0] [0x1 1 [0 8] 4.000000] (HELLO)
r 1.621759348 _9_ RTR  --- 0 AODV 44 [0 ffffffff 0 800] ------- [0:255 -1:255 1 0] [0x1 1 [0 8] 4.000000] (HELLO)
s 1.640000000 _0_ AGT  --- 8 cbr 1000 [0 0 0 0] ------- [0:0 1:0 32 0] [8] 0 0
r 1.640000000 _0_ RTR  --- 8 cbr 1000 [0 0 0 0] ------- [0:0 1:0 32 0] [8] 0 0
s 1.712496544 _6_ RTR  --- 0 AODV 44 [0 0 0 0] ------- [6:255 -1:255 1 0] [0x1 1 [6 2] 4.000000] (HELLO)
s 1.720000000 _0_ AGT  --- 9 cbr 1000 [0 0 0 0] ------- [0:0 1:0 32 0] [9] 0 0
r 1.720000000 _0_ RTR  --- 9 cbr 1000 [0 0 0 0] ------- [0:0 1:0 32 0] [9] 0 0
s 1.800000000 _0_ AGT  --- 10 cbr 1000 [0 0 0 0] ------- [0:0 1:0 32 0] [10] 0 0
r 1.800000000 _0_ RTR  --- 10 cbr 1000 [0 0 0 0] ------- [0:0 1:0 32 0] [10] 0 0
s 1.880000000 _0_ AGT  --- 11 cbr 1000 [0 0 0 0] ------- [0:0 1:0 32 0] [11] 0 0
r 1.880000000 _0_ RTR  --- 11 cbr 1000 [0 0 0 0] ------- [0:0 1:0 32 0] [11] 0 0
s 1.888218277 _2_ RTR  --- 0 AODV 44 [0 0 0 0] ------- [2:255 -1:255 1 0] [0x1 1 [2 4] 4.000000] (HELLO)
r 1.889254460 _4_ RTR  --- 0 AODV 44 [0 ffffffff 2 800] ------- [2:255 -1:255 1 0] [0x1 1 [2 4] 4.000000] (HELLO)
s 1.922799586 _9_ RTR  --- 0 AODV 44 [0 0 0 0] ------- [9:255 -1:255 1 0] [0x1 1 [9 6] 4.000000] (HELLO)
r 1.924256115 _7_ RTR  --- 0 AODV 44 [0 ffffffff 9 800] ------- [9:255 -1:255 1 0] [0x1 1 [9 6] 4.000000] (HELLO)
r 1.924256316 _0_ RTR  --- 0 AODV 44 [0 ffffffff 9 800] ------- [9:255 -1:255 1 0] [0x1 1 [9 6] 4.000000] (HELLO)
s 1.933304728 _7_ RTR  --- 0 AODV 44 [0 0 0 0] ------- [7:255 -1:255 1 0] [0x1 1 [7 8] 4.000000] (HELLO)
r 1.934521193 _0_ RTR  --- 0 AODV 44 [0 ffffffff 7 800] ------- [7:255 -1:255 1 0] [0x1 1 [7 8] 4.000000] (HELLO)
r 1.934521258 _9_ RTR  --- 0 AODV 44 [0 ffffffff 7 800] ------- [7:255 -1:255 1 0] [0x1 1 [7 8] 4.000000] (HELLO)
r 1.934521560 _3_ RTR  --- 0 AODV 44 [0 ffffffff 7 800] ------- [7:255 -1:255 1 0] [0x1 1 [7 8] 4.000000] (HELLO)
s 1.960000000 _0_ AGT  --- 12 cbr 1000 [0 0 0 0] ------- [0:0 1:0 32 0] [12] 0 0
r 1.960000000 _0_ RTR  --- 12 cbr 1000 [0 0 0 0] ------- [0:0 1:0 32 0] [12] 0 0
M 2.00000 0 (598.35, 750.99, 0.00), (598.35, 731.63), 19.36
M 2.00000 1 (748.35, 138.86, 0.00), (748.35, 119.63), 19.23
M 2.00000 2 (460.88, 148.35, 0.00), (460.88, 148.35), 20.00
s 2.018100385 _4_ RTR  --- 0 AODV 44 [0 0 0 0] ------- [4:255 -1:255 1 0] [0x1 1 [4 6] 4.000000] (HELLO)
r 2.019596568 _2_ RTR  --- 0 AODV 44 [0 ffffffff 4 800] ------- [4:255 -1:255 1 0] [0x1 1 [4 6] 4.000000] (HELLO)
r 2.019597162 _1_ RTR  --- 0 AODV 44 [0 ffffffff 4 800] ------- [4:255 -1:255 1 0] [0x1 1 [4 6] 4.000000] (HELLO)
s 2.040000000 _0_ AGT  --- 13 cbr 1000 [0 0 0 0] ------- [0:0 1:0 32 0] [13] 0 0
r 2.040000000 _0_ RTR  --- 13 cbr 1000 [0 0 0 0] ------- [0:0 1:0 32 0] [13] 0 0
s 2.061022649 _8_ RTR  --- 0 AODV 44 [0 0 0 0] ------- [8:255 -1:255 1 0] [0x1 1 [8 2] 4.000000] (HELLO)
s 2.120000000 _0_ AGT  --- 14 cbr 1000 [0 0 0 0] ------- [0:0 1:0 32 0] [14] 0 0
r 2.120000000 _0_ RTR  --- 14 cbr 1000 [0 0 0 0] ------- [0:0 1:0 32 0] [14] 0 0
s 2.170433909 _1_ RTR  --- 0 AODV 44 [0 0 0 0] ------- [1:255 -1:255 1 0] [0x1 1 [1 6] 4.000000] (HELLO)
r 2.171470427 _5_ RTR  --- 0 AODV 44 [0 ffffffff 1 800] ------- [1:255 -1:255 1 0] [0x1 1 [1 6] 4.000000] (HELLO)
r 2.171470687 _4_ RTR  --- 0 AODV 44 [0 ffffffff 1 800] ------- [1:255 -1:255 1 0] [0x1 1 [1 6] 4.000000] (HELLO)
s 2.200000000 _0_ AGT  --- 15 cbr 1000 [0 0 0 0] ------- [0:0 1:0 32 0] [15] 0 0
r 2.200000000 _0_ RTR  --- 15 cbr 1000 [0 0 0 0] ------- [0:0 1:0 32 0] [15] 0 0
s 2.280000000 _0_ AGT  --- 16 cbr 1000 [0 0 0 0] ------- [0:0 1:0 32 0] [16] 0 0
r 2.280000000 _0_ RTR  --- 16 cbr 1000 [0 0 0 0] ------- [0:0 1:0 32 0] [16] 0 0
s 2.360000000 _0_ AGT  --- 17 cbr 1000 [0 0 0 0] ------- [0:0 1:0 32 0] [17] 0 0
r 2.360000000 _0_ RTR  --- 17 cbr 1000 [0 0 0 0] ------- [0:0 1:0 32 0] [17] 0 0
s 2.387581077 _5_ RTR  --- 0 AODV 44 [0 0 0 0] ------- [5:255 -1:255 1 0] [0x1 1 [5 4] 4.000000] (HELLO)
r 2.388497597 _1_ RTR  --- 0 AODV 44 [0 ffffffff 5 800] ------- [5:255 -1:255 1 0] [0x1 1 [5 4] 4.000000] (HELLO)
s 2.440000000 _0_ AGT  --- 18 cbr 1000 [0 0 0 0] ------- [0:0 1:0 32 0] [18] 0 0
r 2.440000000 _0_ RTR  --- 18 cbr 1000 [0 0 0 0] ------- [0:0 1:0 32 0] [18] 0 0
s 2.520000000 _0_ AGT  --- 19 cbr 1000 [0 0 0 0] ------- [0:0 1:0 32 0] [19] 0 0
r 2.520000000 _0_ RTR  --- 19 cbr 1000 [0 0 0 0] ------- [0:0 1:0 32 0] [19] 0 0
s 2.600000000 _0_ AGT  --- 20 cbr 1000 [0 0 0 0] ------- [0:0 1:0 32 0] [20] 0 0
r 2.600000000 _0_ RTR  --- 20 cbr 1000 [0 0 0 0] ------- [0:0 1:0 32 0] [20] 0 0
s 2.680000000 _0_ AGT  --- 21 cbr 1000 [0 0 0 0] ------- [0:0 1:0 32 0] [21] 0 0
r 2.680000000 _0_ RTR  --- 21 cbr 1000 [0 0 0 0] ------- [0:0 1:0 32 0] [21] 0 0
s 2.716206135 _3_ RTR  --- 0 AODV 44 [0 0 0 0] ------- [3:255 -1:255 1 0] [0x1 1 [3 4] 4.000000] (HELLO)
r 2.717442967 _7_ RTR  --- 0 AODV 44 [0 ffffffff 3 800] ------- [3:255 -1:255 1 0] [0x1 1 [3 4] 4.000000] (HELLO)
s 2.758298944 _7_ RTR  --- 0 AODV 44 [0 0 0 0] ------- [7:255 -1:255 1 0] [0x1 1 [7 8] 4.000000] (HELLO)
r 2.759535410 _0_ RTR  --- 0 AODV 44 [0 ffffffff 7 800] ------- [7:255 -1:255 1 0] [0x1 1 [7 8] 4.000000] (HELLO)
r 2.759535473 _9_ RTR  --- 0 AODV 44 [0 ffffffff 7 800] ------- [7:255 -1:255 1 0] [0x1 1 [7 8] 4.000000] (HELLO)
r 2.759535776 _3_ RTR  --- 0 AODV 44 [0 ffffffff 7 800] ------- [7:255 -1:255 1 0] [0x1 1 [7 8] 4.000000] (HELLO)
s 2.760000000 _0_ AGT  --- 22 cbr 1000 [0 0 0 0] ------- [0:0 1:0 32 0] [22] 0 0
r 2.760000000 _0_ RTR  --- 22 cbr 1000 [0 0 0 0] ------- [0:0 1:0 32 0] [22] 0 0
s 2.777982680 _0_ RTR  --- 0 AODV 44 [0 0 0 0] ------- [0:255 -1:255 1 0] [0x1 1 [0 8] 4.000000] (HELLO)
r 2.779159146 _7_ RTR  --- 0 AODV 44 [0 ffffffff 0 800] ------- [0:255 -1:255 1 0] [0x1 1 [0 8] 4.000000] (HELLO)
r 2.779159370 _9_ RTR  --- 0 AODV 44 [0 ffffffff 0 800] ------- [0:255 -1:255 1 0] [0x1 1 [0 8] 4.000000] (HELLO)
s 2.840000000 _0_ AGT  --- 23 cbr 1000 [0 0 0 0] ------- [0:0 1:0 32 0] [23] 0 0
r 2.840000000 _0_ RTR  --- 23 cbr 1000 [0 0 0 0] ------- [0:0 1:0 32 0] [23] 0 0
s 2.840000000 _0_ RTR  --- 0 AODV 48 [0 0 0 0] ------- [0:255 -1:255 30 0] [0x2 1 2 [1 0] [0 10]] (REQUEST)
r 2.840948467 _7_ RTR  --- 0 AODV 48 [0 ffffffff 0 800] ------- [0:255 -1:255 30 0] [0x2 1 2 [1 0] [0 10]] (REQUEST)
r 2.840948688 _9_ RTR  --- 0 AODV 48 [0 ffffffff 0 800] ------- [0:255 -1:255 30 0] [0x2 1 2 [1 0] [0 10]] (REQUEST)
s 2.845320910 _9_ RTR  --- 0 AODV 48 [0 ffffffff 0 800] ------- [9:255 -1:255 29 0] [0x2 2 2 [1 0] [0 10]] (REQUEST)
s 2.845347611 _7_ RTR  --- 0 AODV 48 [0 ffffffff 0 800] ------- [7:255 -1:255 29 0] [0x2 2 2 [1 0] [0 10]] (REQUEST)
r 2.846316078 _0_ RTR  --- 0 AODV 48 [0 ffffffff 7 800] ------- [7:255 -1:255 29 0] [0x2 2 2 [1 0] [0 10]] (REQUEST)
r 2.846316141 _9_ RTR  --- 0 AODV 48 [0 ffffffff 7 800] ------- [7:255 -1:255 29 0] [0x2 2 2 [1 0] [0 10]] (REQUEST)
r 2.846316443 _3_ RTR  --- 0 AODV 48 [0 ffffffff 7 800] ------- [7:255 -1:255 29 0] [0x2 2 2 [1 0] [0 10]] (REQUEST)
r 2.847594670 _7_ RTR  --- 0 AODV 48 [0 ffffffff 9 800] ------- [9:255 -1:255 29 0] [0x2 2 2 [1 0] [0 10]] (REQUEST)
r 2.847594828 _0_ RTR  --- 0 AODV 48 [0 ffffffff 9 800] ------- [9:255 -1:255 29 0] [0x2 2 2 [1 0] [0 10]] (REQUEST)
s 2.899819696 _6_ RTR  --- 0 AODV 44 [0 0 0 0] ------- [6:255 -1:255 1 0] [0x1 1 [6 2] 4.000000] (HELLO)
s 2.920000000 _0_ AGT  --- 24 cbr 1000 [0 0 0 0] ------- [0:0 1:0 32 0] [24] 0 0
r 2.920000000 _0_ RTR  --- 24 cbr 1000 [0 0 0 0] ------- [0:0 1:0 32 0] [24] 0 0
s 2.936830087 _1_ RTR  --- 0 AODV 44 [0 0 0 0] ------- [1:255 -1:255 1 0] [0x1 1 [1 6] 4.000000] (HELLO)
r 2.938186615 _5_ RTR  --- 0 AODV 44 [0 ffffffff 1 800] ------- [1:255 -1:255 1 0] [0x1 1 [1 6] 4.000000] (HELLO)
r 2.938186869 _4_ RTR  --- 0 AODV 44 [0 ffffffff 1 800] ------- [1:255 -1:255 1 0] [0x1 1 [1 6] 4.000000] (HELLO)
s 2.954902308 _4_ RTR  --- 0 AODV 44 [0 0 0 0] ------- [4:255 -1:255 1 0] [0x1 1 [4 6] 4.000000] (HELLO)
r 2.956138491 _2_ RTR  --- 0 AODV 44 [0 ffffffff 4 800] ------- [4:255 -1:255 1 0] [0x1 1 [4 6] 4.000000] (HELLO)
r 2.956139091 _1_ RTR  --- 0 AODV 44 [0 ffffffff 4 800] ------- [4:255 -1:255 1 0] [0x1 1 [4 6] 4.000000] (HELLO)
s 2.977129863 _8_ RTR  --- 0 AODV 44 [0 0 0 0] ------- [8:255 -1:255 1 0] [0x1 1 [8 2] 4.000000] (HELLO)
M 3.00000 0 (598.35, 731.63, 0.00), (598.35, 711.95), 19.68
M 3.00000 1 (748.35, 119.63, 0.00), (748.35, 100.59), 19.03
M 3.00000 2 (460.88, 148.35, 0.00), (480.17, 148.35), 19.29
M 3.00000 3 (259.44, 898.35, 0.00), (259.44, 898.35), 20.00
s 3.000000000 _0_ AGT  --- 25 cbr 1000 [0 0 0 0] ------- [0:0 1:0 32 0] [25] 0 0
r 3.000000000 _0_ RTR  --- 25 cbr 1000 [0 0 0 0] ------- [0:0 1:0 32 0] [25] 0 0
s 3.039224208 _2_ RTR  --- 0 AODV 44 [0 0 0 0] ------- [2:255 -1:255 1 0] [0x1 1 [2 4] 4.000000] (HELLO)
r 3.040140389 _4_ RTR  --- 0 AODV 44 [0 ffffffff 2 800] ------- [2:255 -1:255 1 0] [0x1 1 [2 4] 4.000000] (HELLO)
s 3.080000000 _0_ AGT  --- 26 cbr 1000 [0 0 0 0] ------- [0:0 1:0 32 0] [26] 0 0
r 3.080000000 _0_ RTR  --- 26 cbr 1000 [0 0 0 0] ------- [0:0 1:0 32 0] [26] 0 0
s 3.080590756 _9_ RTR  --- 0 AODV 44 [0 0 0 0] ------- [9:255 -1:255 1 0] [0x1 1 [9 6] 4.000000] (HELLO)
r 3.082047286 _7_ RTR  --- 0 AODV 44 [0 ffffffff 9 800] ------- [9:255 -1:255 1 0] [0x1 1 [9 6] 4.000000] (HELLO)
r 3.082047433 _0_ RTR  --- 0 AODV 44 [0 ffffffff 9 800] ------- [9:255 -1:255 1 0] [0x1 1 [9 6] 4.000000] (HELLO)
s 3.139256211 _5_ RTR  --- 0 AODV 44 [0 0 0 0] ------- [5:255 -1:255 1 0] [0x1 1 [5 4] 4.000000] (HELLO)
r 3.140752743 _1_ RTR  --- 0 AODV 44 [0 ffffffff 5 800] ------- [5:255 -1:255 1 0] [0x1 1 [5 4] 4.000000] (HELLO)
s 3.160000000 _0_ AGT  --- 27 cbr 1000 [0 0 0 0] ------- [0:0 1:0 32 0] [27] 0 0
r 3.160000000 _0_ RTR  --- 27 cbr 1000 [0 0 0 0] ------- [0:0 1:0 32 0] [27] 0 0
s 3.240000000 _0_ AGT  --- 28 cbr 1000 [0 0 0 0] ------- [0:0 1:0 32 0] [28] 0 0
r 3.240000000 _0_ RTR  --- 28 cbr 1000 [0 0 0 0] ------- [0:0 1:0 32 0] [28] 0 0
s 3.320000000 _0_ AGT  --- 29 cbr 1000 [0 0 0 0] ------- [0:0 1:0 32 0] [29] 0 0
r 3.320000000 _0_ RTR  --- 29 cbr 1000 [0 0 0 0] ------- [0:0 1:0 32 0] [29] 0 0
s 3.400000000 _0_ AGT  --- 30 cbr 1000 [0 0 0 0] ------- [0:0 1:0 32 0] [30] 0 0
r 3.400000000 _0_ RTR  --- 30 cbr 1000 [0 0 0 0] ------- [0:0 1:0 32 0] [30] 0 0
s 3.480000000 _0_ AGT  --- 31 cbr 1000 [0 0 0 0] ------- [0:0 1:0 32 0] [31] 0 0
r 3.480000000 _0_ RTR  --- 31 cbr 1000 [0 0 0 0] ------- [0:0 1:0 32 0] [31] 0 0
s 3.524269658 _7_ RTR  --- 0 AODV 44 [0 0 0 0] ------- [7:255 -1:255 1 0] [0x1 1 [7 8] 4.000000] (HELLO)
r 3.525326131 _0_ RTR  --- 0 AODV 44 [0 ffffffff 7 800] ------- [7:255 -1:255 1 0] [0x1 1 [7 8] 4.000000] (HELLO)
r 3.525326187 _9_ RTR  --- 0 AODV 44 [0 ffffffff 7 800] ------- [7:255 -1:255 1 0] [0x1 1 [7 8] 4.000000] (HELLO)
r 3.525326490 _3_ RTR  --- 0 AODV 44 [0 ffffffff 7 800] ------- [7:255 -1:255 1 0] [0x1 1 [7 8] 4.000000] (HELLO)
s 3.560000000 _0_ AGT  --- 32 cbr 1000 [0 0 0 0] ------- [0:0 1:0 32 0] [32] 0 0
r 3.560000000 _0_ RTR  --- 32 cbr 1000 [0 0 0 0] ------- [0:0 1:0 32 0] [32] 0 0
s 3.640000000 _0_ AGT  --- 33 cbr 1000 [0 0 0 0] ------- [0:0 1:0 32 0] [33] 0 0
r 3.640000000 _0_ RTR  --- 33 cbr 1000 [0 0 0 0] ------- [0:0 1:0 32 0] [33] 0 0
s 3.720000000 _0_ AGT  --- 34 cbr 1000 [0 0 0 0] ------- [0:0 1:0 32 0] [34] 0 0
r 3.720000000 _0_ RTR  --- 34 cbr 1000 [0 0 0 0] ------- [0:0 1:0 32 0] [34] 0 0
s 3.800000000 _0_ AGT  --- 35 cbr 1000 [0 0 0 0] ------- [0:0 1:0 32 0] [35] 0 0
r 3.800000000 _0_ RTR  --- 35 cbr 1000 [0 0 0 0] ------- [0:0 1:0 32 0] [35] 0 0
s 3.844900199 _8_ RTR  --- 0 AODV 44 [0 0 0 0] ------- [8:255 -1:255 1 0] [0x1 1 [8 2] 4.000000] (HELLO)
s 3.865022118 _6_ RTR  --- 0 AODV 44 [0 0 0 0] ------- [6:255 -1:255 1 0] [0x1 1 [6 2] 4.000000] (HELLO)
s 3.880000000 _0_ AGT  --- 36 cbr 1000 [0 0 0 0] ------- [0:0 1:0 32 0] [36] 0 0
r 3.880000000 _0_ RTR  --- 36 cbr 1000 [0 0 0 0] ------- [0:0 1:0 32 0] [36] 0 0
s 3.906203951 _3_ RTR  --- 0 AODV 44 [0 0 0 0] ------- [3:255 -1:255 1 0] [0x1 1 [3 4] 4.000000] (HELLO)
r 3.907120783 _7_ RTR  --- 0 AODV 44 [0 ffffffff 3 800] ------- [3:255 -1:255 1 0] [0x1 1 [3 4] 4.000000] (HELLO)
s 3.918605170 _5_ RTR  --- 0 AODV 44 [0 0 0 0] ------- [5:255 -1:255 1 0] [0x1 1 [5 4] 4.000000] (HELLO)
r 3.919681717 _1_ RTR  --- 0 AODV 44 [0 ffffffff 5 800] ------- [5:255 -1:255 1 0] [0x1 1 [5 4] 4.000000] (HELLO)
s 3.922796865 _0_ RTR  --- 0 AODV 44 [0 0 0 0] ------- [0:255 -1:255 1 0] [0x1 1 [0 10] 4.000000] (HELLO)
r 3.923853344 _7_ RTR  --- 0 AODV 44 [0 ffffffff 0 800] ------- [0:255 -1:255 1 0] [0x1 1 [0 10] 4.000000] (HELLO)
r 3.923853505 _9_ RTR  --- 0 AODV 44 [0 ffffffff 0 800] ------- [0:255 -1:255 1 0] [0x1 1 [0 10] 4.000000] (HELLO)
s 3.960000000 _0_ AGT  --- 37 cbr 1000 [0 0 0 0] ------- [0:0 1:0 32 0] [37] 0 0
r 3.960000000 _0_ RTR  --- 37 cbr 1000 [0 0 0 0] ------- [0:0 1:0 32 0] [37] 0 0
M 4.00000 0 (598.35, 711.95, 0.00), (598.35, 692.83), 19.13
M 4.00000 1 (748.35, 100.60, 0.00), (748.35, 80.60), 19.99
M 4.00000 2 (480.17, 148.35, 0.00), (499.56, 148.35), 19.39
M 4.00000 3 (259.44, 898.35, 0.00), (278.85, 898.35), 19.41
M 4.00000 4 (515.69, 151.65, 0.00), (515.69, 151.65), 20.00
s 4.016347250 _4_ RTR  --- 0 AODV 44 [0 0 0 0] ------- [4:255 -1:255 1 0] [0x1 1 [4 6] 4.000000] (HELLO)
r 4.017303368 _2_ RTR  --- 0 AODV 44 [0 ffffffff 4 800] ------- [4:255 -1:255 1 0] [0x1 1 [4 6] 4.000000] (HELLO)
r 4.017304044 _1_ RTR  --- 0 AODV 44 [0 ffffffff 4 800] ------- [4:255 -1:255 1 0] [0x1 1 [4 6] 4.000000] (HELLO)
s 4.040000000 _0_ AGT  --- 38 cbr 1000 [0 0 0 0] ------- [0:0 1:0 32 0] [38] 0 0
r 4.040000000 _0_ RTR  --- 38 cbr 1000 [0 0 0 0] ------- [0:0 1:0 32 0] [38] 0 0
s 4.054656849 _1_ RTR  --- 0 AODV 44 [0 0 0 0] ------- [1:255 -1:255 1 0] [0x1 1 [1 6] 4.000000] (HELLO)
r 4.055573400 _5_ RTR  --- 0 AODV 44 [0 ffffffff 1 800] ------- [1:255 -1:255 1 0] [0x1 1 [1 6] 4.000000] (HELLO)
r 4.055573644 _4_ RTR  --- 0 AODV 44 [0 ffffffff 1 800] ------- [1:255 -1:255 1 0] [0x1 1 [1 6] 4.000000] (HELLO)
s 4.120000000 _0_ AGT  --- 39 cbr 1000 [0 0 0 0] ------- [0:0 1:0 32 0] [39] 0 0
r 4.120000000 _0_ RTR  --- 39 cbr 1000 [0 0 0 0] ------- [0:0 1:0 32 0] [39] 0 0
s 4.183694842 _9_ RTR  --- 0 AODV 44 [0 0 0 0] ------- [9:255 -1:255 1 0] [0x1 1 [9 6] 4.000000] (HELLO)
r 4.184911372 _7_ RTR  --- 0 AODV 44 [0 ffffffff 9 800] ------- [9:255 -1:255 1 0] [0x1 1 [9 6] 4.000000] (HELLO)
r 4.184911471 _0_ RTR  --- 0 AODV 44 [0 ffffffff 9 800] ------- [9:255 -1:255 1 0] [0x1 1 [9 6] 4.000000] (HELLO)
s 4.200000000 _0_ AGT  --- 40 cbr 1000 [0 0 0 0] ------- [0:0 1:0 32 0] [40] 0 0
r 4.200000000 _0_ RTR  --- 40 cbr 1000 [0 0 0 0] ------- [0:0 1:0 32 0] [40] 0 0
s 4.224896613 _2_ RTR  --- 0 AODV 44 [0 0 0 0] ------- [2:255 -1:255 1 0] [0x1 1 [2 4] 4.000000] (HELLO)
r 4.226292718 _4_ RTR  --- 0 AODV 44 [0 ffffffff 2 800] ------- [2:255 -1:255 1 0] [0x1 1 [2 4] 4.000000] (HELLO)
s 4.280000000 _0_ AGT  --- 41 cbr 1000 [0 0 0 0] ------- [0:0 1:0 32 0] [41] 0 0
r 4.280000000 _0_ RTR  --- 41 cbr 1000 [0 0 0 0] ------- [0:0 1:0 32 0] [41] 0 0
s 4.360000000 _0_ AGT  --- 42 cbr 1000 [0 0 0 0] ------- [0:0 1:0 32 0] [42] 0 0
r 4.360000000 _0_ RTR  --- 42 cbr 1000 [0 0 0 0] ------- [0:0 1:0 32 0] [42] 0 0
s 4.440000000 _0_ AGT  --- 43 cbr 1000 [0 0 0 0] ------- [0:0 1:0 32 0] [43] 0 0
r 4.440000000 _0_ RTR  --- 43 cbr 1000 [0 0 0 0] ------- [0:0 1:0 32 0] [43] 0 0
s 4.520000000 _0_ AGT  --- 44 cbr 1000 [0 0 0 0] ------- [0:0 1:0 32 0] [44] 0 0
r 4.520000000 _0_ RTR  --- 44 cbr 1000 [0 0 0 0] ------- [0:0 1:0 32 0] [44] 0 0
s 4.592809374 _7_ RTR  --- 0 AODV 44 [0 0 0 0] ------- [7:255 -1:255 1 0] [0x1 1 [7 8] 4.000000] (HELLO)
r 4.594225865 _0_ RTR  --- 0 AODV 44 [0 ffffffff 7 800] ------- [7:255 -1:255 1 0] [0x1 1 [7 8] 4.000000] (HELLO)
r 4.594225904 _9_ RTR  --- 0 AODV 44 [0 ffffffff 7 800] ------- [7:255 -1:255 1 0] [0x1 1 [7 8] 4.000000] (HELLO)
r 4.594226176 _3_ RTR  --- 0 AODV 44 [0 ffffffff 7 800] ------- [7:255 -1:255 1 0] [0x1 1 [7 8] 4.000000] (HELLO)
s 4.600000000 _0_ AGT  --- 45 cbr 1000 [0 0 0 0] ------- [0:0 1:0 32 0] [45] 0 0
r 4.600000000 _0_ RTR  --- 45 cbr 1000 [0 0 0 0] ------- [0:0 1:0 32 0] [45] 0 0
s 4.680000000 _0_ AGT  --- 46 cbr 1000 [0 0 0 0] ------- [0:0 1:0 32 0] [46] 0 0
r 4.680000000 _0_ RTR  --- 46 cbr 1000 [0 0 0 0] ------- [0:0 1:0 32 0] [46] 0 0
s 4.732100897 _3_ RTR  --- 0 AODV 44 [0 0 0 0] ------- [3:255 -1:255 1 0] [0x1 1 [3 4] 4.000000] (HELLO)
r 4.733017692 _7_ RTR  --- 0 AODV 44 [0 ffffffff 3 800] ------- [3:255 -1:255 1 0] [0x1 1 [3 4] 4.000000] (HELLO)
s 4.760000000 _0_ AGT  --- 47 cbr 1000 [0 0 0 0] ------- [0:0 1:0 32 0] [47] 0 0
r 4.760000000 _0_ RTR  --- 47 cbr 1000 [0 0 0 0] ------- [0:0 1:0 32 0] [47] 0 0
s 4.815821745 _8_ RTR  --- 0 AODV 44 [0 0 0 0] ------- [8:255 -1:255 1 0] [0x1 1 [8 2] 4.000000] (HELLO)
s 4.840000000 _0_ AGT  --- 48 cbr 1000 [0 0 0 0] ------- [0:0 1:0 32 0] [48] 0 0
r 4.840000000 _0_ RTR  --- 48 cbr 1000 [0 0 0 0] ------- [0:0 1:0 32 0] [48] 0 0
s 4.897777690 _4_ RTR  --- 0 AODV 44 [0 0 0 0] ------- [4:255 -1:255 1 0] [0x1 1 [4 6] 4.000000] (HELLO)
r 4.899093752 _2_ RTR  --- 0 AODV 44 [0 ffffffff 4 800] ------- [4:255 -1:255 1 0] [0x1 1 [4 6] 4.000000] (HELLO)
r 4.899094499 _1_ RTR  --- 0 AODV 44 [0 ffffffff 4 800] ------- [4:255 -1:255 1 0] [0x1 1 [4 6] 4.000000] (HELLO)
s 4.907598093 _1_ RTR  --- 0 AODV 44 [0 0 0 0] ------- [1:255 -1:255 1 0] [0x1 1 [1 6] 4.000000] (HELLO)
r 4.908534667 _5_ RTR  --- 0 AODV 44 [0 ffffffff 1 800] ------- [1:255 -1:255 1 0] [0x1 1 [1 6] 4.000000] (HELLO)
r 4.908534902 _4_ RTR  --- 0 AODV 44 [0 ffffffff 1 800] ------- [1:255 -1:255 1 0] [0x1 1 [1 6] 4.000000] (HELLO)
s 4.920000000 _0_ AGT  --- 49 cbr 1000 [0 0 0 0] ------- [0:0 1:0 32 0] [49] 0 0
r 4.920000000 _0_ RTR  --- 49 cbr 1000 [0 0 0 0] ------- [0:0 1:0 32 0] [49] 0 0
s 4.931811791 _0_ RTR  --- 0 AODV 44 [0 0 0 0] ------- [0:255 -1:255 1 0] [0x1 1 [0 10] 4.000000] (HELLO)
r 4.933288290 _7_ RTR  --- 0 AODV 44 [0 ffffffff 0 800] ------- [0:255 -1:255 1 0] [0x1 1 [0 10] 4.000000] (HELLO)
r 4.933288391 _9_ RTR  --- 0 AODV 44 [0 ffffffff 0 800] ------- [0:255 -1:255 1 0] [0x1 1 [0 10] 4.000000] (HELLO)
s 4.936281472 _5_ RTR  --- 0 AODV 44 [0 0 0 0] ------- [5:255 -1:255 1 0] [0x1 1 [5 4] 4.000000] (HELLO)
r 4.937358048 _1_ RTR  --- 0 AODV 44 [0 ffffffff 5 800] ------- [5:255 -1:255 1 0] [0x1 1 [5 4] 4.000000] (HELLO)
M 5.00000 0 (598.35, 692.83, 0.00), (598.35, 672.90), 19.92
M 5.00000 1 (748.35, 80.61, 0.00), (748.35, 60.95), 19.66
M 5.00000 2 (499.56, 148.35, 0.00), (518.42, 148.35), 18.86
M 5.00000 3 (278.85, 898.35, 0.00), (298.43, 898.35), 19.58
M 5.00000 4 (515.69, 151.65, 0.00), (496.58, 151.65), 19.11
M 5.00000 5 (901.65, 161.24, 0.00), (901.65, 161.24), 20.00
s 5.000000000 _0_ AGT  --- 50 cbr 1000 [0 0 0 0] ------- [0:0 1:0 32 0] [50] 0 0
r 5.000000000 _0_ RTR  --- 50 cbr 1000 [0 0 0 0] ------- [0:0 1:0 32 0] [50] 0 0
s 5.014622802 _9_ RTR  --- 0 AODV 44 [0 0 0 0] ------- [9:255 -1:255 1 0] [0x1 1 [9 6] 4.000000] (HELLO)
r 5.015759331 _7_ RTR  --- 0 AODV 44 [0 ffffffff 9 800] ------- [9:255 -1:255 1 0] [0x1 1 [9 6] 4.000000] (HELLO)
r 5.015759399 _0_ RTR  --- 0 AODV 44 [0 ffffffff 9 800] ------- [9:255 -1:255 1 0] [0x1 1 [9 6] 4.000000] (HELLO)
s 5.065741190 _6_ RTR  --- 0 AODV 44 [0 0 0 0] ------- [6:255 -1:255 1 0] [0x1 1 [6 2] 4.000000] (HELLO)
s 5.080000000 _0_ AGT  --- 51 cbr 1000 [0 0 0 0] ------- [0:0 1:0 32 0] [51] 0 0
r 5.080000000 _0_ RTR  --- 51 cbr 1000 [0 0 0 0] ------- [0:0 1:0 32 0] [51] 0 0
s 5.160000000 _0_ AGT  --- 52 cbr 1000 [0 0 0 0] ------- [0:0 1:0 32 0] [52] 0 0
r 5.160000000 _0_ RTR  --- 52 cbr 1000 [0 0 0 0] ------- [0:0 1:0 32 0] [52] 0 0
s 5.240000000 _0_ AGT  --- 53 cbr 1000 [0 0 0 0] ------- [0:0 1:0 32 0] [53] 0 0
r 5.240000000 _0_ RTR  --- 53 cbr 1000 [0 0 0 0] ------- [0:0 1:0 32 0] [53] 0 0
s 5.280760702 _2_ RTR  --- 0 AODV 44 [0 0 0 0] ------- [2:255 -1:255 1 0] [0x1 1 [2 4] 4.000000] (HELLO)
r 5.282196724 _4_ RTR  --- 0 AODV 44 [0 ffffffff 2 800] ------- [2:255 -1:255 1 0] [0x1 1 [2 4] 4.000000] (HELLO)
s 5.320000000 _0_ AGT  --- 54 cbr 1000 [0 0 0 0] ------- [0:0 1:0 32 0] [54] 0 0
r 5.320000000 _0_ RTR  --- 54 cbr 1000 [0 0 0 0] ------- [0:0 1:0 32 0] [54] 0 0
s 5.400000000 _0_ AGT  --- 55 cbr 1000 [0 0 0 0] ------- [0:0 1:0 32 0] [55] 0 0
r 5.400000000 _0_ RTR  --- 55 cbr 1000 [0 0 0 0] ------- [0:0 1:0 32 0] [55] 0 0
s 5.480000000 _0_ AGT  --- 56 cbr 1000 [0 0 0 0] ------- [0:0 1:0 32 0] [56] 0 0
r 5.480000000 _0_ RTR  --- 56 cbr 1000 [0 0 0 0] ------- [0:0 1:0 32 0] [56] 0 0
s 5.483023628 _7_ RTR  --- 0 AODV 44 [0 0 0 0] ------- [7:255 -1:255 1 0] [0x1 1 [7 8] 4.000000] (HELLO)
r 5.483980141 _0_ RTR  --- 0 AODV 44 [0 ffffffff 7 800] ------- [7:255 -1:255 1 0] [0x1 1 [7 8] 4.000000] (HELLO)
r 5.483980158 _9_ RTR  --- 0 AODV 44 [0 ffffffff 7 800] ------- [7:255 -1:255 1 0] [0x1 1 [7 8] 4.000000] (HELLO)
r 5.483980385 _3_ RTR  --- 0 AODV 44 [0 ffffffff 7 800] ------- [7:255 -1:255 1 0] [0x1 1 [7 8] 4.000000] (HELLO)
s 5.502887396 _3_ RTR  --- 0 AODV 44 [0 0 0 0] ------- [3:255 -1:255 1 0] [0x1 1 [3 4] 4.000000] (HELLO)
r 5.504164152 _7_ RTR  --- 0 AODV 44 [0 ffffffff 3 800] ------- [3:255 -1:255 1 0] [0x1 1 [3 4] 4.000000] (HELLO)
s 5.560000000 _0_ AGT  --- 57 cbr 1000 [0 0 0 0] ------- [0:0 1:0 32 0] [57] 0 0
r 5.560000000 _0_ RTR  --- 57 cbr 1000 [0 0 0 0] ------- [0:0 1:0 32 0] [57] 0 0
s 5.592779785 _8_ RTR  --- 0 AODV 44 [0 0 0 0] ------- [8:255 -1:255 1 0] [0x1 1 [8 2] 4.000000] (HELLO)
s 5.640000000 _0_ AGT  --- 58 cbr 1000 [0 0 0 0] ------- [0:0 1:0 32 0] [58] 0 0
r 5.640000000 _0_ RTR  --- 58 cbr 1000 [0 0 0 0] ------- [0:0 1:0 32 0] [58] 0 0
s 5.675451002 _4_ RTR  --- 0 AODV 44 [0 0 0 0] ------- [4:255 -1:255 1 0] [0x1 1 [4 6] 4.000000] (HELLO)
r 5.676847035 _2_ RTR  --- 0 AODV 44 [0 ffffffff 4 800] ------- [4:255 -1:255 1 0] [0x1 1 [4 6] 4.000000] (HELLO)