M 0.00000 0 (298.35, 170.06, 0.00), (298.35, 170.06), 20.00
s 0.000000000 _0_ RTR  --- 0 AODV 44 [0 0 0 0] ------- [0:255 -1:255 1 0] [0x1 1 [0 2] 4.000000] (HELLO)
s 0.000000000 _1_ RTR  --- 0 AODV 44 [0 0 0 0] ------- [1:255 -1:255 1 0] [0x1 1 [1 2] 4.000000] (HELLO)
s 0.000000000 _2_ RTR  --- 0 AODV 44 [0 0 0 0] ------- [2:255 -1:255 1 0] [0x1 1 [2 2] 4.000000] (HELLO)
s 0.000000000 _3_ RTR  --- 0 AODV 44 [0 0 0 0] ------- [3:255 -1:255 1 0] [0x1 1 [3 2] 4.000000] (HELLO)
s 0.000000000 _4_ RTR  --- 0 AODV 44 [0 0 0 0] ------- [4:255 -1:255 1 0] [0x1 1 [4 2] 4.000000] (HELLO)
s 0.000000000 _5_ RTR  --- 0 AODV 44 [0 0 0 0] ------- [5:255 -1:255 1 0] [0x1 1 [5 2] 4.000000] (HELLO)
s 0.000000000 _6_ RTR  --- 0 AODV 44 [0 0 0 0] ------- [6:255 -1:255 1 0] [0x1 1 [6 2] 4.000000] (HELLO)
s 0.000000000 _7_ RTR  --- 0 AODV 44 [0 0 0 0] ------- [7:255 -1:255 1 0] [0x1 1 [7 2] 4.000000] (HELLO)
s 0.000000000 _8_ RTR  --- 0 AODV 44 [0 0 0 0] ------- [8:255 -1:255 1 0] [0x1 1 [8 2] 4.000000] (HELLO)
s 0.000000000 _9_ RTR  --- 0 AODV 44 [0 0 0 0] ------- [9:255 -1:255 1 0] [0x1 1 [9 2] 4.000000] (HELLO)
r 0.000956500 _7_ RTR  --- 0 AODV 44 [0 ffffffff 2 800] ------- [2:255 -1:255 1 0] [0x1 1 [2 2] 4.000000] (HELLO)
r 0.001076675 _3_ RTR  --- 0 AODV 44 [0 ffffffff 4 800] ------- [4:255 -1:255 1 0] [0x1 1 [4 2] 4.000000] (HELLO)
r 0.001156699 _0_ RTR  --- 0 AODV 44 [0 ffffffff 6 800] ------- [6:255 -1:255 1 0] [0x1 1 [6 2] 4.000000] (HELLO)
r 0.001943000 _2_ RTR  --- 0 AODV 44 [0 ffffffff 7 800] ------- [7:255 -1:255 1 0] [0x1 1 [7 2] 4.000000] (HELLO)
r 0.002043398 _6_ RTR  --- 0 AODV 44 [0 ffffffff 0 800] ------- [0:255 -1:255 1 0] [0x1 1 [0 2] 4.000000] (HELLO)
r 0.003474140 _8_ RTR  --- 0 AODV 44 [0 ffffffff 1 800] ------- [1:255 -1:255 1 0] [0x1 1 [1 2] 4.000000] (HELLO)
r 0.003474706 _5_ RTR  --- 0 AODV 44 [0 ffffffff 1 800] ------- [1:255 -1:255 1 0] [0x1 1 [1 2] 4.000000] (HELLO)
r 0.003474749 _9_ RTR  --- 0 AODV 44 [0 ffffffff 1 800] ------- [1:255 -1:255 1 0] [0x1 1 [1 2] 4.000000] (HELLO)
r 0.003655006 _4_ RTR  --- 0 AODV 44 [0 ffffffff 3 800] ------- [3:255 -1:255 1 0] [0x1 1 [3 2] 4.000000] (HELLO)
r 0.004440792 _5_ RTR  --- 0 AODV 44 [0 ffffffff 9 800] ------- [9:255 -1:255 1 0] [0x1 1 [9 2] 4.000000] (HELLO)
r 0.004441457 _1_ RTR  --- 0 AODV 44 [0 ffffffff 9 800] ------- [9:255 -1:255 1 0] [0x1 1 [9 2] 4.000000] (HELLO)
r 0.004441553 _8_ RTR  --- 0 AODV 44 [0 ffffffff 9 800] ------- [9:255 -1:255 1 0] [0x1 1 [9 2] 4.000000] (HELLO)
r 0.005326836 _9_ RTR  --- 0 AODV 44 [0 ffffffff 5 800] ------- [5:255 -1:255 1 0] [0x1 1 [5 2] 4.000000] (HELLO)
r 0.005327457 _1_ RTR  --- 0 AODV 44 [0 ffffffff 5 800] ------- [5:255 -1:255 1 0] [0x1 1 [5 2] 4.000000] (HELLO)
r 0.005327553 _8_ RTR  --- 0 AODV 44 [0 ffffffff 5 800] ------- [5:255 -1:255 1 0] [0x1 1 [5 2] 4.000000] (HELLO)
r 0.006313652 _1_ RTR  --- 0 AODV 44 [0 ffffffff 8 800] ------- [8:255 -1:255 1 0] [0x1 1 [8 2] 4.000000] (HELLO)
r 0.006314314 _5_ RTR  --- 0 AODV 44 [0 ffffffff 8 800] ------- [8:255 -1:255 1 0] [0x1 1 [8 2] 4.000000] (HELLO)
r 0.006314357 _9_ RTR  --- 0 AODV 44 [0 ffffffff 8 800] ------- [8:255 -1:255 1 0] [0x1 1 [8 2] 4.000000] (HELLO)
s 0.750169789 _0_ RTR  --- 0 AODV 44 [0 0 0 0] ------- [0:255 -1:255 1 0] [0x1 1 [0 4] 4.000000] (HELLO)
r 0.751126487 _6_ RTR  --- 0 AODV 44 [0 ffffffff 0 800] ------- [0:255 -1:255 1 0] [0x1 1 [0 4] 4.000000] (HELLO)
s 0.757102330 _2_ RTR  --- 0 AODV 44 [0 0 0 0] ------- [2:255 -1:255 1 0] [0x1 1 [2 4] 4.000000] (HELLO)
r 0.758158830 _7_ RTR  --- 0 AODV 44 [0 ffffffff 2 800] ------- [2:255 -1:255 1 0] [0x1 1 [2 4] 4.000000] (HELLO)
s 0.794061336 _3_ RTR  --- 0 AODV 44 [0 0 0 0] ------- [3:255 -1:255 1 0] [0x1 1 [3 4] 4.000000] (HELLO)
r 0.795178011 _4_ RTR  --- 0 AODV 44 [0 ffffffff 3 800] ------- [3:255 -1:255 1 0] [0x1 1 [3 4] 4.000000] (HELLO)
s 0.867300876 _8_ RTR  --- 0 AODV 44 [0 0 0 0] ------- [8:255 -1:255 1 0] [0x1 1 [8 8] 4.000000] (HELLO)
r 0.868436975 _1_ RTR  --- 0 AODV 44 [0 ffffffff 8 800] ------- [8:255 -1:255 1 0] [0x1 1 [8 8] 4.000000] (HELLO)
r 0.868437637 _5_ RTR  --- 0 AODV 44 [0 ffffffff 8 800] ------- [8:255 -1:255 1 0] [0x1 1 [8 8] 4.000000] (HELLO)
r 0.868437680 _9_ RTR  --- 0 AODV 44 [0 ffffffff 8 800] ------- [8:255 -1:255 1 0] [0x1 1 [8 8] 4.000000] (HELLO)
s 0.906480886 _6_ RTR  --- 0 AODV 44 [0 0 0 0] ------- [6:255 -1:255 1 0] [0x1 1 [6 4] 4.000000] (HELLO)
r 0.907457585 _0_ RTR  --- 0 AODV 44 [0 ffffffff 6 800] ------- [6:255 -1:255 1 0] [0x1 1 [6 4] 4.000000] (HELLO)
s 0.970586691 _4_ RTR  --- 0 AODV 44 [0 0 0 0] ------- [4:255 -1:255 1 0] [0x1 1 [4 4] 4.000000] (HELLO)
r 0.972003366 _3_ RTR  --- 0 AODV 44 [0 ffffffff 4 800] ------- [4:255 -1:255 1 0] [0x1 1 [4 4] 4.000000] (HELLO)
M 1.00000 0 (298.35, 170.06, 0.00), (296.48, 151.82), 19.07
M 1.00000 1 (598.35, 438.86, 0.00), (598.35, 438.86), 20.00
s 1.000000000 _0_ AGT  --- 0 cbr 1000 [0 0 0 0] ------- [0:0 1:0 32 0] [0] 0 0
r 1.000000000 _0_ RTR  --- 0 cbr 1000 [0 0 0 0] ------- [0:0 1:0 32 0] [0] 0 0
s 1.000000000 _0_ RTR  --- 0 AODV 48 [0 0 0 0] ------- [0:255 -1:255 30 0] [0x2 1 1 [1 0] [0 6]] (REQUEST)
r 1.001128699 _6_ RTR  --- 0 AODV 48 [0 ffffffff 0 800] ------- [0:255 -1:255 30 0] [0x2 1 1 [1 0] [0 6]] (REQUEST)
s 1.008115431 _6_ RTR  --- 0 AODV 48 [0 ffffffff 0 800] ------- [6:255 -1:255 29 0] [0x2 2 1 [1 0] [0 6]] (REQUEST)
r 1.009064130 _0_ RTR  --- 0 AODV 48 [0 ffffffff 6 800] ------- [6:255 -1:255 29 0] [0x2 2 1 [1 0] [0 6]] (REQUEST)
s 1.027940358 _1_ RTR  --- 0 AODV 44 [0 0 0 0] ------- [1:255 -1:255 1 0] [0x1 1 [1 8] 4.000000] (HELLO)
r 1.029016457 _8_ RTR  --- 0 AODV 44 [0 ffffffff 1 800] ------- [1:255 -1:255 1 0] [0x1 1 [1 8] 4.000000] (HELLO)
r 1.029017023 _5_ RTR  --- 0 AODV 44 [0 ffffffff 1 800] ------- [1:255 -1:255 1 0] [0x1 1 [1 8] 4.000000] (HELLO)
r 1.029017066 _9_ RTR  --- 0 AODV 44 [0 ffffffff 1 800] ------- [1:255 -1:255 1 0] [0x1 1 [1 8] 4.000000] (HELLO)
s 1.069432572 _9_ RTR  --- 0 AODV 44 [0 0 0 0] ------- [9:255 -1:255 1 0] [0x1 1 [9 8] 4.000000] (HELLO)
r 1.070648615 _5_ RTR  --- 0 AODV 44 [0 ffffffff 9 800] ------- [9:255 -1:255 1 0] [0x1 1 [9 8] 4.000000] (HELLO)
r 1.070649279 _1_ RTR  --- 0 AODV 44 [0 ffffffff 9 800] ------- [9:255 -1:255 1 0] [0x1 1 [9 8] 4.000000] (HELLO)
r 1.070649375 _8_ RTR  --- 0 AODV 44 [0 ffffffff 9 800] ------- [9:255 -1:255 1 0] [0x1 1 [9 8] 4.000000] (HELLO)
s 1.080000000 _0_ AGT  --- 1 cbr 1000 [0 0 0 0] ------- [0:0 1:0 32 0] [1] 0 0
r 1.080000000 _0_ RTR  --- 1 cbr 1000 [0 0 0 0] ------- [0:0 1:0 32 0] [1] 0 0
s 1.149577727 _5_ RTR  --- 0 AODV 44 [0 0 0 0] ------- [5:255 -1:255 1 0] [0x1 1 [5 8] 4.000000] (HELLO)
r 1.150793770 _9_ RTR  --- 0 AODV 44 [0 ffffffff 5 800] ------- [5:255 -1:255 1 0] [0x1 1 [5 8] 4.000000] (HELLO)
r 1.150794392 _1_ RTR  --- 0 AODV 44 [0 ffffffff 5 800] ------- [5:255 -1:255 1 0] [0x1 1 [5 8] 4.000000] (HELLO)
r 1.150794488 _8_ RTR  --- 0 AODV 44 [0 ffffffff 5 800] ------- [5:255 -1:255 1 0] [0x1 1 [5 8] 4.000000] (HELLO)
s 1.158238026 _7_ RTR  --- 0 AODV 44 [0 0 0 0] ------- [7:255 -1:255 1 0] [0x1 1 [7 4] 4.000000] (HELLO)
r 1.159634526 _2_ RTR  --- 0 AODV 44 [0 ffffffff 7 800] ------- [7:255 -1:255 1 0] [0x1 1 [7 4] 4.000000] (HELLO)
s 1.160000000 _0_ AGT  --- 2 cbr 1000 [0 0 0 0] ------- [0:0 1:0 32 0] [2] 0 0
r 1.160000000 _0_ RTR  --- 2 cbr 1000 [0 0 0 0] ------- [0:0 1:0 32 0] [2] 0 0
s 1.240000000 _0_ AGT  --- 3 cbr 1000 [0 0 0 0] ------- [0:0 1:0 32 0] [3] 0 0
r 1.240000000 _0_ RTR  --- 3 cbr 1000 [0 0 0 0] ------- [0:0 1:0 32 0] [3] 0 0
s 1.320000000 _0_ AGT  --- 4 cbr 1000 [0 0 0 0] ------- [0:0 1:0 32 0] [4] 0 0
r 1.320000000 _0_ RTR  --- 4 cbr 1000 [0 0 0 0] ------- [0:0 1:0 32 0] [4] 0 0
s 1.400000000 _0_ AGT  --- 5 cbr 1000 [0 0 0 0] ------- [0:0 1:0 32 0] [5] 0 0
r 1.400000000 _0_ RTR  --- 5 cbr 1000 [0 0 0 0] ------- [0:0 1:0 32 0] [5] 0 0
s 1.480000000 _0_ AGT  --- 6 cbr 1000 [0 0 0 0] ------- [0:0 1:0 32 0] [6] 0 0
r 1.480000000 _0_ RTR  --- 6 cbr 1000 [0 0 0 0] ------- [0:0 1:0 32 0] [6] 0 0
s 1.560000000 _0_ AGT  --- 7 cbr 1000 [0 0 0 0] ------- [0:0 1:0 32 0] [7] 0 0
r 1.560000000 _0_ RTR  --- 7 cbr 1000 [0 0 0 0] ------- [0:0 1:0 32 0] [7] 0 0
s 1.598660572 _3_ RTR  --- 0 AODV 44 [0 0 0 0] ------- [3:255 -1:255 1 0] [0x1 1 [3 4] 4.000000] (HELLO)
r 1.599877247 _4_ RTR  --- 0 AODV 44 [0 ffffffff 3 800] ------- [3:255 -1:255 1 0] [0x1 1 [3 4] 4.000000] (HELLO)
s 1.620782603 _0_ RTR  --- 0 AODV 44 [0 0 0 0] ------- [0:255 -1:255 1 0] [0x1 1 [0 6] 4.000000] (HELLO)
r 1.621819295 _6_ RTR  --- 0 AODV 44 [0 ffffffff 0 800] ------- [0:255 -1:255 1 0] [0x1 1 [0 6] 4.000000] (HELLO)
s 1.640000000 _0_ AGT  --- 8 cbr 1000 [0 0 0 0] ------- [0:0 1:0 32 0] [8] 0 0
r 1.640000000 _0_ RTR  --- 8 cbr 1000 [0 0 0 0] ------- [0:0 1:0 32 0] [8] 0 0
s 1.712496544 _6_ RTR  --- 0 AODV 44 [0 0 0 0] ------- [6:255 -1:255 1 0] [0x1 1 [6 4] 4.000000] (HELLO)
r 1.713493235 _0_ RTR  --- 0 AODV 44 [0 ffffffff 6 800] ------- [6:255 -1:255 1 0] [0x1 1 [6 4] 4.000000] (HELLO)
s 1.720000000 _0_ AGT  --- 9 cbr 1000 [0 0 0 0] ------- [0:0 1:0 32 0] [9] 0 0
r 1.720000000 _0_ RTR  --- 9 cbr 1000 [0 0 0 0] ------- [0:0 1:0 32 0] [9] 0 0
s 1.800000000 _0_ AGT  --- 10 cbr 1000 [0 0 0 0] ------- [0:0 1:0 32 0] [10] 0 0
r 1.800000000 _0_ RTR  --- 10 cbr 1000 [0 0 0 0] ------- [0:0 1:0 32 0] [10] 0 0
s 1.833211308 _9_ RTR  --- 0 AODV 44 [0 0 0 0] ------- [9:255 -1:255 1 0] [0x1 1 [9 8] 4.000000] (HELLO)
r 1.834187351 _5_ RTR  --- 0 AODV 44 [0 ffffffff 9 800] ------- [9:255 -1:255 1 0] [0x1 1 [9 8] 4.000000] (HELLO)
r 1.834188016 _1_ RTR  --- 0 AODV 44 [0 ffffffff 9 800] ------- [9:255 -1:255 1 0] [0x1 1 [9 8] 4.000000] (HELLO)
r 1.834188111 _8_ RTR  --- 0 AODV 44 [0 ffffffff 9 800] ------- [9:255 -1:255 1 0] [0x1 1 [9 8] 4.000000] (HELLO)
s 1.880000000 _0_ AGT  --- 11 cbr 1000 [0 0 0 0] ------- [0:0 1:0 32 0] [11] 0 0
r 1.880000000 _0_ RTR  --- 11 cbr 1000 [0 0 0 0] ------- [0:0 1:0 32 0] [11] 0 0
s 1.888218277 _2_ RTR  --- 0 AODV 44 [0 0 0 0] ------- [2:255 -1:255 1 0] [0x1 1 [2 4] 4.000000] (HELLO)
r 1.889254777 _7_ RTR  --- 0 AODV 44 [0 ffffffff 2 800] ------- [2:255 -1:255 1 0] [0x1 1 [2 4] 4.000000] (HELLO)
s 1.908852432 _1_ RTR  --- 0 AODV 44 [0 0 0 0] ------- [1:255 -1:255 1 0] [0x1 1 [1 8] 4.000000] (HELLO)
r 1.909888530 _8_ RTR  --- 0 AODV 44 [0 ffffffff 1 800] ------- [1:255 -1:255 1 0] [0x1 1 [1 8] 4.000000] (HELLO)
r 1.909889096 _5_ RTR  --- 0 AODV 44 [0 ffffffff 1 800] ------- [1:255 -1:255 1 0] [0x1 1 [1 8] 4.000000] (HELLO)
r 1.909889139 _9_ RTR  --- 0 AODV 44 [0 ffffffff 1 800] ------- [1:255 -1:255 1 0] [0x1 1 [1 8] 4.000000] (HELLO)
s 1.960000000 _0_ AGT  --- 12 cbr 1000 [0 0 0 0] ------- [0:0 1:0 32 0] [12] 0 0
r 1.960000000 _0_ RTR  --- 12 cbr 1000 [0 0 0 0] ------- [0:0 1:0 32 0] [12] 0 0
M 2.00000 0 (296.48, 151.82, 0.00), (277.13, 151.65), 19.36
M 2.00000 1 (598.35, 438.86, 0.00), (598.35, 419.63), 19.23
M 2.00000 2 (889.12, 751.65, 0.00), (889.12, 751.65), 20.00
s 2.011605040 _7_ RTR  --- 0 AODV 44 [0 0 0 0] ------- [7:255 -1:255 1 0] [0x1 1 [7 4] 4.000000] (HELLO)
r 2.013061540 _2_ RTR  --- 0 AODV 44 [0 ffffffff 7 800] ------- [7:255 -1:255 1 0] [0x1 1 [7 4] 4.000000] (HELLO)
s 2.018100385 _4_ RTR  --- 0 AODV 44 [0 0 0 0] ------- [4:255 -1:255 1 0] [0x1 1 [4 4] 4.000000] (HELLO)
r 2.019317060 _3_ RTR  --- 0 AODV 44 [0 ffffffff 4 800] ------- [4:255 -1:255 1 0] [0x1 1 [4 4] 4.000000] (HELLO)
s 2.040000000 _0_ AGT  --- 13 cbr 1000 [0 0 0 0] ------- [0:0 1:0 32 0] [13] 0 0
r 2.040000000 _0_ RTR  --- 13 cbr 1000 [0 0 0 0] ------- [0:0 1:0 32 0] [13] 0 0
s 2.061022649 _8_ RTR  --- 0 AODV 44 [0 0 0 0] ------- [8:255 -1:255 1 0] [0x1 1 [8 8] 4.000000] (HELLO)
r 2.062518749 _1_ RTR  --- 0 AODV 44 [0 ffffffff 8 800] ------- [8:255 -1:255 1 0] [0x1 1 [8 8] 4.000000] (HELLO)
r 2.062519410 _5_ RTR  --- 0 AODV 44 [0 ffffffff 8 800] ------- [8:255 -1:255 1 0] [0x1 1 [8 8] 4.000000] (HELLO)
r 2.062519453 _9_ RTR  --- 0 AODV 44 [0 ffffffff 8 800] ------- [8:255 -1:255 1 0] [0x1 1 [8 8] 4.000000] (HELLO)
s 2.120000000 _0_ AGT  --- 14 cbr 1000 [0 0 0 0] ------- [0:0 1:0 32 0] [14] 0 0
r 2.120000000 _0_ RTR  --- 14 cbr 1000 [0 0 0 0] ------- [0:0 1:0 32 0] [14] 0 0
s 2.200000000 _0_ AGT  --- 15 cbr 1000 [0 0 0 0] ------- [0:0 1:0 32 0] [15] 0 0
r 2.200000000 _0_ RTR  --- 15 cbr 1000 [0 0 0 0] ------- [0:0 1:0 32 0] [15] 0 0
s 2.280000000 _0_ AGT  --- 16 cbr 1000 [0 0 0 0] ------- [0:0 1:0 32 0] [16] 0 0
r 2.280000000 _0_ RTR  --- 16 cbr 1000 [0 0 0 0] ------- [0:0 1:0 32 0] [16] 0 0
s 2.292071278 _5_ RTR  --- 0 AODV 44 [0 0 0 0] ------- [5:255 -1:255 1 0] [0x1 1 [5 8] 4.000000] (HELLO)
r 2.293147321 _9_ RTR  --- 0 AODV 44 [0 ffffffff 5 800] ------- [5:255 -1:255 1 0] [0x1 1 [5 8] 4.000000] (HELLO)
r 2.293147931 _1_ RTR  --- 0 AODV 44 [0 ffffffff 5 800] ------- [5:255 -1:255 1 0] [0x1 1 [5 8] 4.000000] (HELLO)
r 2.293148039 _8_ RTR  --- 0 AODV 44 [0 ffffffff 5 800] ------- [5:255 -1:255 1 0] [0x1 1 [5 8] 4.000000] (HELLO)
s 2.360000000 _0_ AGT  --- 17 cbr 1000 [0 0 0 0] ------- [0:0 1:0 32 0] [17] 0 0
r 2.360000000 _0_ RTR  --- 17 cbr 1000 [0 0 0 0] ------- [0:0 1:0 32 0] [17] 0 0
s 2.395849305 _0_ RTR  --- 0 AODV 44 [0 0 0 0] ------- [0:255 -1:255 1 0] [0x1 1 [0 6] 4.000000] (HELLO)
r 2.396885969 _6_ RTR  --- 0 AODV 44 [0 ffffffff 0 800] ------- [0:255 -1:255 1 0] [0x1 1 [0 6] 4.000000] (HELLO)
s 2.440000000 _0_ AGT  --- 18 cbr 1000 [0 0 0 0] ------- [0:0 1:0 32 0] [18] 0 0
r 2.440000000 _0_ RTR  --- 18 cbr 1000 [0 0 0 0] ------- [0:0 1:0 32 0] [18] 0 0
s 2.520000000 _0_ AGT  --- 19 cbr 1000 [0 0 0 0] ------- [0:0 1:0 32 0] [19] 0 0
r 2.520000000 _0_ RTR  --- 19 cbr 1000 [0 0 0 0] ------- [0:0 1:0 32 0] [19] 0 0
s 2.600000000 _0_ AGT  --- 20 cbr 1000 [0 0 0 0] ------- [0:0 1:0 32 0] [20] 0 0
r 2.600000000 _0_ RTR  --- 20 cbr 1000 [0 0 0 0] ------- [0:0 1:0 32 0] [20] 0 0
s 2.680000000 _0_ AGT  --- 21 cbr 1000 [0 0 0 0] ------- [0:0 1:0 32 0] [21] 0 0
r 2.680000000 _0_ RTR  --- 21 cbr 1000 [0 0 0 0] ------- [0:0 1:0 32 0] [21] 0 0
s 2.760000000 _0_ AGT  --- 22 cbr 1000 [0 0 0 0] ------- [0:0 1:0 32 0] [22] 0 0
r 2.760000000 _0_ RTR  --- 22 cbr 1000 [0 0 0 0] ------- [0:0 1:0 32 0] [22] 0 0
s 2.830042107 _6_ RTR  --- 0 AODV 44 [0 0 0 0] ------- [6:255 -1:255 1 0] [0x1 1 [6 4] 4.000000] (HELLO)
r 2.830958743 _0_ RTR  --- 0 AODV 44 [0 ffffffff 6 800] ------- [6:255 -1:255 1 0] [0x1 1 [6 4] 4.000000] (HELLO)
s 2.836663922 _3_ RTR  --- 0 AODV 44 [0 0 0 0] ------- [3:255 -1:255 1 0] [0x1 1 [3 4] 4.000000] (HELLO)
r 2.837900597 _4_ RTR  --- 0 AODV 44 [0 ffffffff 3 800] ------- [3:255 -1:255 1 0] [0x1 1 [3 4] 4.000000] (HELLO)
s 2.840000000 _0_ AGT  --- 23 cbr 1000 [0 0 0 0] ------- [0:0 1:0 32 0] [23] 0 0
r 2.840000000 _0_ RTR  --- 23 cbr 1000 [0 0 0 0] ------- [0:0 1:0 32 0] [23] 0 0
s 2.840000000 _0_ RTR  --- 0 AODV 48 [0 0 0 0] ------- [0:255 -1:255 30 0] [0x2 1 2 [1 0] [0 8]] (REQUEST)
r 2.841448636 _6_ RTR  --- 0 AODV 48 [0 ffffffff 0 800] ------- [0:255 -1:255 30 0] [0x2 1 2 [1 0] [0 8]] (REQUEST)
s 2.843094600 _4_ RTR  --- 0 AODV 44 [0 0 0 0] ------- [4:255 -1:255 1 0] [0x1 1 [4 4] 4.000000] (HELLO)
r 2.844271276 _3_ RTR  --- 0 AODV 44 [0 ffffffff 4 800] ------- [4:255 -1:255 1 0] [0x1 1 [4 4] 4.000000] (HELLO)
s 2.847602202 _6_ RTR  --- 0 AODV 48 [0 ffffffff 0 800] ------- [6:255 -1:255 29 0] [0x2 2 2 [1 0] [0 8]] (REQUEST)
r 2.848550837 _0_ RTR  --- 0 AODV 48 [0 ffffffff 6 800] ------- [6:255 -1:255 29 0] [0x2 2 2 [1 0] [0 8]] (REQUEST)
s 2.920000000 _0_ AGT  --- 24 cbr 1000 [0 0 0 0] ------- [0:0 1:0 32 0] [24] 0 0
r 2.920000000 _0_ RTR  --- 24 cbr 1000 [0 0 0 0] ------- [0:0 1:0 32 0] [24] 0 0
s 2.990411385 _9_ RTR  --- 0 AODV 44 [0 0 0 0] ------- [9:255 -1:255 1 0] [0x1 1 [9 8] 4.000000] (HELLO)
r 2.991927428 _5_ RTR  --- 0 AODV 44 [0 ffffffff 9 800] ------- [9:255 -1:255 1 0] [0x1 1 [9 8] 4.000000] (HELLO)
r 2.991928054 _1_ RTR  --- 0 AODV 44 [0 ffffffff 9 800] ------- [9:255 -1:255 1 0] [0x1 1 [9 8] 4.000000] (HELLO)
r 2.991928189 _8_ RTR  --- 0 AODV 44 [0 ffffffff 9 800] ------- [9:255 -1:255 1 0] [0x1 1 [9 8] 4.000000] (HELLO)
s 2.997824572 _8_ RTR  --- 0 AODV 44 [0 0 0 0] ------- [8:255 -1:255 1 0] [0x1 1 [8 8] 4.000000] (HELLO)
r 2.998760711 _1_ RTR  --- 0 AODV 44 [0 ffffffff 8 800] ------- [8:255 -1:255 1 0] [0x1 1 [8 8] 4.000000] (HELLO)
r 2.998761333 _5_ RTR  --- 0 AODV 44 [0 ffffffff 8 800] ------- [8:255 -1:255 1 0] [0x1 1 [8 8] 4.000000] (HELLO)
r 2.998761376 _9_ RTR  --- 0 AODV 44 [0 ffffffff 8 800] ------- [8:255 -1:255 1 0] [0x1 1 [8 8] 4.000000] (HELLO)
M 3.00000 0 (277.13, 151.65, 0.00), (257.45, 151.65), 19.68
M 3.00000 1 (598.35, 419.63, 0.00), (598.35, 400.59), 19.03
M 3.00000 2 (889.12, 751.65, 0.00), (869.83, 751.65), 19.29
M 3.00000 3 (1.65, 559.44, 0.00), (1.65, 559.44), 15.70
s 3.000000000 _0_ AGT  --- 25 cbr 1000 [0 0 0 0] ------- [0:0 1:0 32 0] [25] 0 0
r 3.000000000 _0_ RTR  --- 25 cbr 1000 [0 0 0 0] ------- [0:0 1:0 32 0] [25] 0 0
s 3.059858363 _1_ RTR  --- 0 AODV 44 [0 0 0 0] ------- [1:255 -1:255 1 0] [0x1 1 [1 8] 4.000000] (HELLO)
r 3.060794505 _8_ RTR  --- 0 AODV 44 [0 ffffffff 1 800] ------- [1:255 -1:255 1 0] [0x1 1 [1 8] 4.000000] (HELLO)
r 3.060794987 _5_ RTR  --- 0 AODV 44 [0 ffffffff 1 800] ------- [1:255 -1:255 1 0] [0x1 1 [1 8] 4.000000] (HELLO)
r 3.060795029 _9_ RTR  --- 0 AODV 44 [0 ffffffff 1 800] ------- [1:255 -1:255 1 0] [0x1 1 [1 8] 4.000000] (HELLO)
s 3.075541429 _2_ RTR  --- 0 AODV 44 [0 0 0 0] ------- [2:255 -1:255 1 0] [0x1 1 [2 4] 4.000000] (HELLO)
r 3.076897929 _7_ RTR  --- 0 AODV 44 [0 ffffffff 2 800] ------- [2:255 -1:255 1 0] [0x1 1 [2 4] 4.000000] (HELLO)
s 3.080000000 _0_ AGT  --- 26 cbr 1000 [0 0 0 0] ------- [0:0 1:0 32 0] [26] 0 0
r 3.080000000 _0_ RTR  --- 26 cbr 1000 [0 0 0 0] ------- [0:0 1:0 32 0] [26] 0 0
s 3.160000000 _0_ AGT  --- 27 cbr 1000 [0 0 0 0] ------- [0:0 1:0 32 0] [27] 0 0
r 3.160000000 _0_ RTR  --- 27 cbr 1000 [0 0 0 0] ------- [0:0 1:0 32 0] [27] 0 0
s 3.162245483 _0_ RTR  --- 0 AODV 44 [0 0 0 0] ------- [0:255 -1:255 1 0] [0x1 1 [0 8] 4.000000] (HELLO)
r 3.163482097 _6_ RTR  --- 0 AODV 44 [0 ffffffff 0 800] ------- [0:255 -1:255 1 0] [0x1 1 [0 8] 4.000000] (HELLO)
s 3.169396210 _7_ RTR  --- 0 AODV 44 [0 0 0 0] ------- [7:255 -1:255 1 0] [0x1 1 [7 4] 4.000000] (HELLO)
r 3.170492711 _2_ RTR  --- 0 AODV 44 [0 ffffffff 7 800] ------- [7:255 -1:255 1 0] [0x1 1 [7 4] 4.000000] (HELLO)
s 3.208178492 _5_ RTR  --- 0 AODV 44 [0 0 0 0] ------- [5:255 -1:255 1 0] [0x1 1 [5 8] 4.000000] (HELLO)
r 3.209094535 _9_ RTR  --- 0 AODV 44 [0 ffffffff 5 800] ------- [5:255 -1:255 1 0] [0x1 1 [5 8] 4.000000] (HELLO)
r 3.209095110 _1_ RTR  --- 0 AODV 44 [0 ffffffff 5 800] ------- [5:255 -1:255 1 0] [0x1 1 [5 8] 4.000000] (HELLO)
r 3.209095253 _8_ RTR  --- 0 AODV 44 [0 ffffffff 5 800] ------- [5:255 -1:255 1 0] [0x1 1 [5 8] 4.000000] (HELLO)
s 3.240000000 _0_ AGT  --- 28 cbr 1000 [0 0 0 0] ------- [0:0 1:0 32 0] [28] 0 0
r 3.240000000 _0_ RTR  --- 28 cbr 1000 [0 0 0 0] ------- [0:0 1:0 32 0] [28] 0 0
s 3.320000000 _0_ AGT  --- 29 cbr 1000 [0 0 0 0] ------- [0:0 1:0 32 0] [29] 0 0
r 3.320000000 _0_ RTR  --- 29 cbr 1000 [0 0 0 0] ------- [0:0 1:0 32 0] [29] 0 0
s 3.400000000 _0_ AGT  --- 30 cbr 1000 [0 0 0 0] ------- [0:0 1:0 32 0] [30] 0 0
r 3.400000000 _0_ RTR  --- 30 cbr 1000 [0 0 0 0] ------- [0:0 1:0 32 0] [30] 0 0
s 3.480000000 _0_ AGT  --- 31 cbr 1000 [0 0 0 0] ------- [0:0 1:0 32 0] [31] 0 0
r 3.480000000 _0_ RTR  --- 31 cbr 1000 [0 0 0 0] ------- [0:0 1:0 32 0] [31] 0 0
s 3.560000000 _0_ AGT  --- 32 cbr 1000 [0 0 0 0] ------- [0:0 1:0 32 0] [32] 0 0
r 3.560000000 _0_ RTR  --- 32 cbr 1000 [0 0 0 0] ------- [0:0 1:0 32 0] [32] 0 0
s 3.581717241 _6_ RTR  --- 0 AODV 44 [0 0 0 0] ------- [6:255 -1:255 1 0] [0x1 1 [6 4] 4.000000] (HELLO)
r 3.583173828 _0_ RTR  --- 0 AODV 44 [0 ffffffff 6 800] ------- [6:255 -1:255 1 0] [0x1 1 [6 4] 4.000000] (HELLO)
s 3.640000000 _0_ AGT  --- 33 cbr 1000 [0 0 0 0] ------- [0:0 1:0 32 0] [33] 0 0
r 3.640000000 _0_ RTR  --- 33 cbr 1000 [0 0 0 0] ------- [0:0 1:0 32 0] [33] 0 0
s 3.720000000 _0_ AGT  --- 34 cbr 1000 [0 0 0 0] ------- [0:0 1:0 32 0] [34] 0 0
r 3.720000000 _0_ RTR  --- 34 cbr 1000 [0 0 0 0] ------- [0:0 1:0 32 0] [34] 0 0
s 3.800000000 _0_ AGT  --- 35 cbr 1000 [0 0 0 0] ------- [0:0 1:0 32 0] [35] 0 0
r 3.800000000 _0_ RTR  --- 35 cbr 1000 [0 0 0 0] ------- [0:0 1:0 32 0] [35] 0 0
s 3.807413132 _8_ RTR  --- 0 AODV 44 [0 0 0 0] ------- [8:255 -1:255 1 0] [0x1 1 [8 8] 4.000000] (HELLO)
r 3.808909314 _1_ RTR  --- 0 AODV 44 [0 ffffffff 8 800] ------- [8:255 -1:255 1 0] [0x1 1 [8 8] 4.000000] (HELLO)
r 3.808909893 _5_ RTR  --- 0 AODV 44 [0 ffffffff 8 800] ------- [8:255 -1:255 1 0] [0x1 1 [8 8] 4.000000] (HELLO)
r 3.808909936 _9_ RTR  --- 0 AODV 44 [0 ffffffff 8 800] ------- [8:255 -1:255 1 0] [0x1 1 [8 8] 4.000000] (HELLO)
s 3.880000000 _0_ AGT  --- 36 cbr 1000 [0 0 0 0] ------- [0:0 1:0 32 0] [36] 0 0
r 3.880000000 _0_ RTR  --- 36 cbr 1000 [0 0 0 0] ------- [0:0 1:0 32 0] [36] 0 0
s 3.960000000 _0_ AGT  --- 37 cbr 1000 [0 0 0 0] ------- [0:0 1:0 32 0] [37] 0 0
r 3.960000000 _0_ RTR  --- 37 cbr 1000 [0 0 0 0] ------- [0:0 1:0 32 0] [37] 0 0
s 3.960368589 _9_ RTR  --- 0 AODV 44 [0 0 0 0] ------- [9:255 -1:255 1 0] [0x1 1 [9 8] 4.000000] (HELLO)
r 3.961424633 _5_ RTR  --- 0 AODV 44 [0 ffffffff 9 800] ------- [9:255 -1:255 1 0] [0x1 1 [9 8] 4.000000] (HELLO)
r 3.961425224 _1_ RTR  --- 0 AODV 44 [0 ffffffff 9 800] ------- [9:255 -1:255 1 0] [0x1 1 [9 8] 4.000000] (HELLO)
r 3.961425393 _8_ RTR  --- 0 AODV 44 [0 ffffffff 9 800] ------- [9:255 -1:255 1 0] [0x1 1 [9 8] 4.000000] (HELLO)
s 3.987908786 _4_ RTR  --- 0 AODV 44 [0 0 0 0] ------- [4:255 -1:255 1 0] [0x1 1 [4 4] 4.000000] (HELLO)
r 3.988925461 _3_ RTR  --- 0 AODV 44 [0 ffffffff 4 800] ------- [4:255 -1:255 1 0] [0x1 1 [4 4] 4.000000] (HELLO)
M 4.00000 0 (257.45, 151.65, 0.00), (238.33, 151.65), 19.13
M 4.00000 1 (598.35, 400.60, 0.00), (598.35, 380.60), 19.99
M 4.00000 2 (869.83, 751.65, 0.00), (850.44, 751.65), 19.39
M 4.00000 3 (1.65, 559.44, 0.00), (1.65, 575.13), 15.69
M 4.00000 4 (65.69, 751.65, 0.00), (65.69, 751.65), 20.00
s 4.025060785 _1_ RTR  --- 0 AODV 44 [0 0 0 0] ------- [1:255 -1:255 1 0] [0x1 1 [1 8] 4.000000] (HELLO)
r 4.026356979 _8_ RTR  --- 0 AODV 44 [0 ffffffff 1 800] ------- [1:255 -1:255 1 0] [0x1 1 [1 8] 4.000000] (HELLO)
r 4.026357376 _5_ RTR  --- 0 AODV 44 [0 ffffffff 1 800] ------- [1:255 -1:255 1 0] [0x1 1 [1 8] 4.000000] (HELLO)
r 4.026357417 _9_ RTR  --- 0 AODV 44 [0 ffffffff 1 800] ------- [1:255 -1:255 1 0] [0x1 1 [1 8] 4.000000] (HELLO)
s 4.026661738 _3_ RTR  --- 0 AODV 44 [0 0 0 0] ------- [3:255 -1:255 1 0] [0x1 1 [3 4] 4.000000] (HELLO)
r 4.027578412 _4_ RTR  --- 0 AODV 44 [0 ffffffff 3 800] ------- [3:255 -1:255 1 0] [0x1 1 [3 4] 4.000000] (HELLO)
s 4.037166547 _7_ RTR  --- 0 AODV 44 [0 0 0 0] ------- [7:255 -1:255 1 0] [0x1 1 [7 4] 4.000000] (HELLO)
r 4.038243053 _2_ RTR  --- 0 AODV 44 [0 ffffffff 7 800] ------- [7:255 -1:255 1 0] [0x1 1 [7 4] 4.000000] (HELLO)
s 4.040000000 _0_ AGT  --- 38 cbr 1000 [0 0 0 0] ------- [0:0 1:0 32 0] [38] 0 0
r 4.040000000 _0_ RTR  --- 38 cbr 1000 [0 0 0 0] ------- [0:0 1:0 32 0] [38] 0 0
s 4.120000000 _0_ AGT  --- 39 cbr 1000 [0 0 0 0] ------- [0:0 1:0 32 0] [39] 0 0
r 4.120000000 _0_ RTR  --- 39 cbr 1000 [0 0 0 0] ------- [0:0 1:0 32 0] [39] 0 0
s 4.193368191 _2_ RTR  --- 0 AODV 44 [0 0 0 0] ------- [2:255 -1:255 1 0] [0x1 1 [2 4] 4.000000] (HELLO)
r 4.194424699 _7_ RTR  --- 0 AODV 44 [0 ffffffff 2 800] ------- [2:255 -1:255 1 0] [0x1 1 [2 4] 4.000000] (HELLO)
s 4.200000000 _0_ AGT  --- 40 cbr 1000 [0 0 0 0] ------- [0:0 1:0 32 0] [40] 0 0
r 4.200000000 _0_ RTR  --- 40 cbr 1000 [0 0 0 0] ------- [0:0 1:0 32 0] [40] 0 0
s 4.223690424 _0_ RTR  --- 0 AODV 44 [0 0 0 0] ------- [0:255 -1:255 1 0] [0x1 1 [0 8] 4.000000] (HELLO)
r 4.224646970 _6_ RTR  --- 0 AODV 44 [0 ffffffff 0 800] ------- [0:255 -1:255 1 0] [0x1 1 [0 8] 4.000000] (HELLO)
s 4.280000000 _0_ AGT  --- 41 cbr 1000 [0 0 0 0] ------- [0:0 1:0 32 0] [41] 0 0
r 4.280000000 _0_ RTR  --- 41 cbr 1000 [0 0 0 0] ------- [0:0 1:0 32 0] [41] 0 0
s 4.360000000 _0_ AGT  --- 42 cbr 1000 [0 0 0 0] ------- [0:0 1:0 32 0] [42] 0 0
r 4.360000000 _0_ RTR  --- 42 cbr 1000 [0 0 0 0] ------- [0:0 1:0 32 0] [42] 0 0
s 4.393850897 _5_ RTR  --- 0 AODV 44 [0 0 0 0] ------- [5:255 -1:255 1 0] [0x1 1 [5 8] 4.000000] (HELLO)
r 4.394766940 _9_ RTR  --- 0 AODV 44 [0 ffffffff 5 800] ------- [5:255 -1:255 1 0] [0x1 1 [5 8] 4.000000] (HELLO)
r 4.394767476 _1_ RTR  --- 0 AODV 44 [0 ffffffff 5 800] ------- [5:255 -1:255 1 0] [0x1 1 [5 8] 4.000000] (HELLO)
r 4.394767658 _8_ RTR  --- 0 AODV 44 [0 ffffffff 5 800] ------- [5:255 -1:255 1 0] [0x1 1 [5 8] 4.000000] (HELLO)
s 4.440000000 _0_ AGT  --- 43 cbr 1000 [0 0 0 0] ------- [0:0 1:0 32 0] [43] 0 0
r 4.440000000 _0_ RTR  --- 43 cbr 1000 [0 0 0 0] ------- [0:0 1:0 32 0] [43] 0 0
s 4.520000000 _0_ AGT  --- 44 cbr 1000 [0 0 0 0] ------- [0:0 1:0 32 0] [44] 0 0
r 4.520000000 _0_ RTR  --- 44 cbr 1000 [0 0 0 0] ------- [0:0 1:0 32 0] [44] 0 0
s 4.586762091 _8_ RTR  --- 0 AODV 44 [0 0 0 0] ------- [8:255 -1:255 1 0] [0x1 1 [8 8] 4.000000] (HELLO)
r 4.587978319 _1_ RTR  --- 0 AODV 44 [0 ffffffff 8 800] ------- [8:255 -1:255 1 0] [0x1 1 [8 8] 4.000000] (HELLO)
r 4.587978852 _5_ RTR  --- 0 AODV 44 [0 ffffffff 8 800] ------- [8:255 -1:255 1 0] [0x1 1 [8 8] 4.000000] (HELLO)
r 4.587978895 _9_ RTR  --- 0 AODV 44 [0 ffffffff 8 800] ------- [8:255 -1:255 1 0] [0x1 1 [8 8] 4.000000] (HELLO)
s 4.600000000 _0_ AGT  --- 45 cbr 1000 [0 0 0 0] ------- [0:0 1:0 32 0] [45] 0 0
r 4.600000000 _0_ RTR  --- 45 cbr 1000 [0 0 0 0] ------- [0:0 1:0 32 0] [45] 0 0
s 4.680000000 _0_ AGT  --- 46 cbr 1000 [0 0 0 0] ------- [0:0 1:0 32 0] [46] 0 0
r 4.680000000 _0_ RTR  --- 46 cbr 1000 [0 0 0 0] ------- [0:0 1:0 32 0] [46] 0 0
s 4.684821327 _6_ RTR  --- 0 AODV 44 [0 0 0 0] ------- [6:255 -1:255 1 0] [0x1 1 [6 4] 4.000000] (HELLO)
r 4.686217843 _0_ RTR  --- 0 AODV 44 [0 ffffffff 6 800] ------- [6:255 -1:255 1 0] [0x1 1 [6 4] 4.000000] (HELLO)
s 4.760000000 _0_ AGT  --- 47 cbr 1000 [0 0 0 0] ------- [0:0 1:0 32 0] [47] 0 0
r 4.760000000 _0_ RTR  --- 47 cbr 1000 [0 0 0 0] ------- [0:0 1:0 32 0] [47] 0 0
s 4.840000000 _0_ AGT  --- 48 cbr 1000 [0 0 0 0] ------- [0:0 1:0 32 0] [48] 0 0
r 4.840000000 _0_ RTR  --- 48 cbr 1000 [0 0 0 0] ------- [0:0 1:0 32 0] [48] 0 0
s 4.852558684 _3_ RTR  --- 0 AODV 44 [0 0 0 0] ------- [3:255 -1:255 1 0] [0x1 1 [3 4] 4.000000] (HELLO)
r 4.853975317 _4_ RTR  --- 0 AODV 44 [0 ffffffff 3 800] ------- [3:255 -1:255 1 0] [0x1 1 [3 4] 4.000000] (HELLO)
s 4.920000000 _0_ AGT  --- 49 cbr 1000 [0 0 0 0] ------- [0:0 1:0 32 0] [49] 0 0
r 4.920000000 _0_ RTR  --- 49 cbr 1000 [0 0 0 0] ------- [0:0 1:0 32 0] [49] 0 0
s 4.958830332 _4_ RTR  --- 0 AODV 44 [0 0 0 0] ------- [4:255 -1:255 1 0] [0x1 1 [4 4] 4.000000] (HELLO)
r 4.959746960 _3_ RTR  --- 0 AODV 44 [0 ffffffff 4 800] ------- [4:255 -1:255 1 0] [0x1 1 [4 4] 4.000000] (HELLO)
M 5.00000 0 (238.33, 151.65, 0.00), (218.40, 151.65), 19.92
M 5.00000 1 (598.35, 380.61, 0.00), (598.35, 360.95), 19.66
M 5.00000 2 (850.44, 751.65, 0.00), (831.58, 751.65), 18.86
M 5.00000 3 (1.65, 575.13, 0.00), (1.65, 586.69), 11.56
M 5.00000 4 (65.69, 751.65, 0.00), (46.58, 751.65), 19.11
M 5.00000 5 (751.65, 311.24, 0.00), (751.65, 311.24), 20.00
s 5.000000000 _0_ AGT  --- 50 cbr 1000 [0 0 0 0] ------- [0:0 1:0 32 0] [50] 0 0
r 5.000000000 _0_ RTR  --- 50 cbr 1000 [0 0 0 0] ------- [0:0 1:0 32 0] [50] 0 0
s 5.028908306 _9_ RTR  --- 0 AODV 44 [0 0 0 0] ------- [9:255 -1:255 1 0] [0x1 1 [9 8] 4.000000] (HELLO)
r 5.030204349 _5_ RTR  --- 0 AODV 44 [0 ffffffff 9 800] ------- [9:255 -1:255 1 0] [0x1 1 [9 8] 4.000000] (HELLO)
r 5.030204906 _1_ RTR  --- 0 AODV 44 [0 ffffffff 9 800] ------- [9:255 -1:255 1 0] [0x1 1 [9 8] 4.000000] (HELLO)
r 5.030205109 _8_ RTR  --- 0 AODV 44 [0 ffffffff 9 800] ------- [9:255 -1:255 1 0] [0x1 1 [9 8] 4.000000] (HELLO)
s 5.054842849 _7_ RTR  --- 0 AODV 44 [0 0 0 0] ------- [7:255 -1:255 1 0] [0x1 1 [7 4] 4.000000] (HELLO)
r 5.056159369 _2_ RTR  --- 0 AODV 44 [0 ffffffff 7 800] ------- [7:255 -1:255 1 0] [0x1 1 [7 4] 4.000000] (HELLO)
s 5.080000000 _0_ AGT  --- 51 cbr 1000 [0 0 0 0] ------- [0:0 1:0 32 0] [51] 0 0
r 5.080000000 _0_ RTR  --- 51 cbr 1000 [0 0 0 0] ------- [0:0 1:0 32 0] [51] 0 0
s 5.105120865 _0_ RTR  --- 0 AODV 44 [0 0 0 0] ------- [0:255 -1:255 1 0] [0x1 1 [0 8] 4.000000] (HELLO)
r 5.106057354 _6_ RTR  --- 0 AODV 44 [0 ffffffff 0 800] ------- [0:255 -1:255 1 0] [0x1 1 [0 8] 4.000000] (HELLO)
s 5.160000000 _0_ AGT  --- 52 cbr 1000 [0 0 0 0] ------- [0:0 1:0 32 0] [52] 0 0
r 5.160000000 _0_ RTR  --- 52 cbr 1000 [0 0 0 0] ------- [0:0 1:0 32 0] [52] 0 0
s 5.202383117 _2_ RTR  --- 0 AODV 44 [0 0 0 0] ------- [2:255 -1:255 1 0] [0x1 1 [2 4] 4.000000] (HELLO)
r 5.203859640 _7_ RTR  --- 0 AODV 44 [0 ffffffff 2 800] ------- [2:255 -1:255 1 0] [0x1 1 [2 4] 4.000000] (HELLO)
s 5.225779857 _1_ RTR  --- 0 AODV 44 [0 0 0 0] ------- [1:255 -1:255 1 0] [0x1 1 [1 8] 4.000000] (HELLO)
r 5.226856124 _8_ RTR  --- 0 AODV 44 [0 ffffffff 1 800] ------- [1:255 -1:255 1 0] [0x1 1 [1 8] 4.000000] (HELLO)
r 5.226856412 _5_ RTR  --- 0 AODV 44 [0 ffffffff 1 800] ------- [1:255 -1:255 1 0] [0x1 1 [1 8] 4.000000] (HELLO)
r 5.226856452 _9_ RTR  --- 0 AODV 44 [0 ffffffff 1 800] ------- [1:255 -1:255 1 0] [0x1 1 [1 8] 4.000000] (HELLO)
s 5.240000000 _0_ AGT  --- 53 cbr 1000 [0 0 0 0] ------- [0:0 1:0 32 0] [53] 0 0
r 5.240000000 _0_ RTR  --- 53 cbr 1000 [0 0 0 0] ------- [0:0 1:0 32 0] [53] 0 0
s 5.246792140 _5_ RTR  --- 0 AODV 44 [0 0 0 0] ------- [5:255 -1:255 1 0] [0x1 1 [5 8] 4.000000] (HELLO)
r 5.247928183 _9_ RTR  --- 0 AODV 44 [0 ffffffff 5 800] ------- [5:255 -1:255 1 0] [0x1 1 [5 8] 4.000000] (HELLO)
r 5.247928694 _1_ RTR  --- 0 AODV 44 [0 ffffffff 5 800] ------- [5:255 -1:255 1 0] [0x1 1 [5 8] 4.000000] (HELLO)
r 5.247928901 _8_ RTR  --- 0 AODV 44 [0 ffffffff 5 800] ------- [5:255 -1:255 1 0] [0x1 1 [5 8] 4.000000] (HELLO)
s 5.320000000 _0_ AGT  --- 54 cbr 1000 [0 0 0 0] ------- [0:0 1:0 32 0] [54] 0 0
r 5.320000000 _0_ RTR  --- 54 cbr 1000 [0 0 0 0] ------- [0:0 1:0 32 0] [54] 0 0
s 5.400000000 _0_ AGT  --- 55 cbr 1000 [0 0 0 0] ------- [0:0 1:0 32 0] [55] 0 0